----- GAMESS execution script 'rungms' -----
This job is running on host ccp01
under operating system Linux at Thu Jan 7 15:16:47 CET 2021
Available scratch disk space (Kbyte units) at beginning of the job is
Filesystem     1K-blocks      Used Available Use% Mounted on
/dev/sda2      848504916 180186268 625147260  23% /local
GAMESS temporary binary files will be written to /local/shinde/tmp.LZqOuf1Aa2
GAMESS supplementary output files will be written to /home/shinde/calcs/cn3/gamess
Copying input file cn3_rhf_BFD-Da.inp to your run's scratch directory...

 Distributed Data Interface kickoff program.
 Initiating 1 compute processes on 1 nodes to run the following command:
 /software/gamess_sockets/gamess.Apr2018.x cn3_rhf_BFD-Da 

          ******************************************************
          *         GAMESS VERSION = 14 FEB 2018 (R1)         *
          *             FROM IOWA STATE UNIVERSITY             *
          * M.W.SCHMIDT, K.K.BALDRIDGE, J.A.BOATZ, S.T.ELBERT, *
          *   M.S.GORDON, J.H.JENSEN, S.KOSEKI, N.MATSUNAGA,   *
          *          K.A.NGUYEN, S.J.SU, T.L.WINDUS,           *
          *       TOGETHER WITH M.DUPUIS, J.A.MONTGOMERY       *
          *         J.COMPUT.CHEM.  14, 1347-1363(1993)        *
          **************** 64 BIT LINUX VERSION ****************

  SINCE 1993, STUDENTS AND POSTDOCS WORKING AT IOWA STATE UNIVERSITY
  AND ALSO IN THEIR VARIOUS JOBS AFTER LEAVING ISU HAVE MADE IMPORTANT
  CONTRIBUTIONS TO THE CODE:
     IVANA ADAMOVIC, CHRISTINE AIKENS, YURI ALEXEEV, POOJA ARORA,
     ANDREY ASADCHEV, ROB BELL, PRADIPTA BANDYOPADHYAY, JONATHAN BENTZ,
     BRETT BODE, KURT BRORSEN, CALEB CARLIN, GALINA CHABAN, WEI CHEN,
     CHEOL HO CHOI, PAUL DAY, ALBERT DEFUSCO, NUWAN DESILVA, TIM DUDLEY,
     DMITRI FEDOROV, ALEX FINDLATER, GRAHAM FLETCHER, MARK FREITAG,
     KURT GLAESEMANN, ANASTASIA GUININA,
     DAN KEMP, GRANT MERRILL, NORIYUKI MINEZAWA, JONATHAN MULLIN,
     TAKESHI NAGATA, SEAN NEDD, HEATHER NETZLOFF, BOSILJKA NJEGIC, RYAN OLSON,
     MIKE PAK, BUU PHAM,
     SPENCER PRUITT, LUKE ROSKOP, JIM SHOEMAKER, LYUDMILA SLIPCHENKO,
     TONY SMITH, SAROM SOK LEANG, JIE SONG, TETSUYA TAKETSUGU, SIMON WEBB,
     PENG XU, SOOHAENG YOO, FEDERICO ZAHARIEV

  ADDITIONAL CODE HAS BEEN PROVIDED BY COLLABORATORS IN OTHER GROUPS:
     IOWA STATE UNIVERSITY:
          JOE IVANIC, AARON WEST, LAIMUTIS BYTAUTAS, KLAUS RUEDENBERG
     UNIVERSITY OF TOKYO: KIMIHIKO HIRAO, TAKAHITO NAKAJIMA,
          TAKAO TSUNEDA, MUNEAKI KAMIYA, SUSUMU YANAGISAWA,
          KIYOSHI YAGI, MAHITO CHIBA, SEIKEN TOKURA, NAOAKI KAWAKAMI
     UNIVERSITY OF AARHUS: FRANK JENSEN
     UNIVERSITY OF IOWA: VISVALDAS KAIRYS, HUI LI
     NATIONAL INST. OF STANDARDS AND TECHNOLOGY: WALT STEVENS, DAVID GARMER
     UNIVERSITY OF PISA: BENEDETTA MENNUCCI, JACOPO TOMASI
     UNIVERSITY OF MEMPHIS: HENRY KURTZ, PRAKASHAN KORAMBATH
     UNIVERSITY OF ALBERTA: TOBY ZENG, MARIUSZ KLOBUKOWSKI
     UNIVERSITY OF NEW ENGLAND: MARK SPACKMAN
     MIE UNIVERSITY: HIROAKI UMEDA
     NAT. INST. OF ADVANCED INDUSTRIAL SCIENCE AND TECHNOLOGY: KAZUO KITAURA
     MICHIGAN STATE UNIVERSITY:
          KAROL KOWALSKI, MARTA WLOCH, JEFFREY GOUR, JESSE LUTZ,
          WEI LI, PIOTR PIECUCH
     UNIVERSITY OF SILESIA: MONIKA MUSIAL, STANISLAW KUCHARSKI
     FACULTES UNIVERSITAIRES NOTRE-DAME DE LA PAIX:
          OLIVIER QUINET, BENOIT CHAMPAGNE
     UNIVERSITY OF CALIFORNIA - SANTA BARBARA: BERNARD KIRTMAN
     INSTITUTE FOR MOLECULAR SCIENCE:
          KAZUYA ISHIMURA, MICHIO KATOUDA, AND SHIGERU NAGASE
     UNIVERSITY OF NOTRE DAME: ANNA POMOGAEVA, DAN CHIPMAN
     KYUSHU UNIVERSITY:
          HARUYUKI NAKANO,
          FENG LONG GU, JACEK KORCHOWIEC, MARCIN MAKOWSKI, AND YURIKO AOKI,
          HIROTOSHI MORI AND EISAKU MIYOSHI
     PENNSYLVANIA STATE UNIVERSITY:
          TZVETELIN IORDANOV, CHET SWALINA, JONATHAN SKONE,
          SHARON HAMMES-SCHIFFER
     WASEDA UNIVERSITY:
          MASATO KOBAYASHI, TOMOKO AKAMA, TSUGUKI TOUMA,
          TAKESHI YOSHIKAWA, YASUHIRO IKABATA, JUNJI SEINO,
          YUYA NAKAJIMA, HIROMI NAKAI
     NANJING UNIVERSITY: SHUHUA LI
     UNIVERSITY OF NEBRASKA:
          PEIFENG SU, DEJUN SI, NANDUN THELLAMUREGE, YALI WANG, HUI LI
     UNIVERSITY OF ZURICH: ROBERTO PEVERATI, KIM BALDRIDGE
     N. COPERNICUS UNIVERSITY AND JACKSON STATE UNIVERSITY:
          MARIA BARYSZ
     UNIVERSITY OF COPENHAGEN: Jimmy Kromann, CASPER STEINMANN
     TOKYO INSTITUTE OF TECHNOLOGY: HIROYA NAKATA
     NAGOYA UNIVERSITY: YOSHIO NISHIMOTO, STEPHAN IRLE
     MOSCOW STATE UNIVERSITY: VLADIMIR MIRONOV

 EXECUTION OF GAMESS BEGUN Thu Jan  7 15:16:47 2021

            ECHO OF THE FIRST FEW INPUT CARDS -
 INPUT CARD> $CONTRL                                                                        
 INPUT CARD>        SCFTYP=RHF                                                              
 INPUT CARD>        ECP=READ                                                                
 INPUT CARD>        RUNTYP=ENERGY                                                           
 INPUT CARD>        COORD=UNIQUE                                                            
 INPUT CARD>        MULT=1                                                                  
 INPUT CARD>        NORMF=1                                                                 
 INPUT CARD>        UNITS=ANGS                                                              
 INPUT CARD>        ICHARG=+1                                                               
 INPUT CARD> $END                                                                           
 INPUT CARD> $SYSTEM                                                                        
 INPUT CARD>        TIMLIM=3000                                                             
 INPUT CARD>        MWORDS=100                                                              
 INPUT CARD> $END                                                                           
 INPUT CARD> $BASIS                                                                         
 INPUT CARD>        EXTFIL=.TRUE.                                                           
 INPUT CARD>        GBASIS=BFD-Da                                                           
 INPUT CARD> $END                                                                           
 INPUT CARD> $DATA                                                                          
 INPUT CARD>-  cn3: Cyanine dye with 3 heavy atoms. Geometry PBE0/cc-pVQZ.                  
 INPUT CARD>Cnv 2                                                                           
 INPUT CARD>                                                                                
 INPUT CARD>  N           7.0      1.1580870000     0.0000000000    -0.1742150000           
 INPUT CARD>  C           6.0      0.0000000000     0.0000000000     0.4241650000           
 INPUT CARD>  H           1.0      0.0000000000     0.0000000000     1.5087040000           
 INPUT CARD>  H           1.0      1.2583600000     0.0000000000    -1.1784870000           
 INPUT CARD>  H           1.0      2.0051120000     0.0000000000     0.3711430000           
 INPUT CARD> $END                                                                           
 INPUT CARD>                                                                                
 INPUT CARD> $ECP                                                                           
 INPUT CARD>N-ECP       GEN 2 1                                                             
 INPUT CARD>3                                                                               
 INPUT CARD>   5.00000000 1 9.23501007                                                      
 INPUT CARD>  46.17505034 3 7.66830008                                                      
 INPUT CARD> -30.18893534 2 7.34486070                                                      
 INPUT CARD>1                                                                               
 INPUT CARD>  31.69720409 2 6.99536540                                                      
 INPUT CARD>N-ECP                                                                           
 INPUT CARD>C-ECP       GEN 2 1                                                             
 INPUT CARD>3                                                                               
 INPUT CARD>   4.00000000 1 8.35973821                                                      
 INPUT CARD>  33.43895285 3 4.48361888                                                      
 INPUT CARD> -19.17537323 2 3.93831258                                                      
 INPUT CARD>1                                                                               
 INPUT CARD>  22.55164191 2 5.02991637                                                      
 INPUT CARD>H-ECP  GEN 0 0                                                                  
 INPUT CARD>3                                                                               
 INPUT CARD>   1.000000000000 1 25.000000000000                                             
 INPUT CARD>   25.00000000000 3 10.821821902641                                             
 INPUT CARD>  -8.228005709676 2 9.368618758833                                              
  100000000 WORDS OF MEMORY AVAILABLE

     $BASIS REQUESTS READING THE "BFD-DA  " BASIS SET FROM AN EXTERNAL FILE


     RUN TITLE
     ---------
 -  cn3: Cyanine dye with 3 heavy atoms. Geometry PBE0/cc-pVQZ.                  

 THE POINT GROUP OF THE MOLECULE IS CNV     
 THE ORDER OF THE PRINCIPAL AXIS IS     2

 THE EXTERNAL BASIS SET FILE BEING READ IS
     "/software/gamess_pool/BFD_Basis.data_Hw1"

 ATOM      ATOMIC                      COORDINATES (BOHR)
           CHARGE         X                   Y                   Z
 N           7.0    -2.1884670999        0.0000000000       -0.3292186130
 N           7.0     2.1884670999        0.0000000000       -0.3292186130
 C           6.0     0.0000000000        0.0000000000        0.8015556236
 H           1.0     0.0000000000        0.0000000000        2.8510371566
 H           1.0    -2.3779555939        0.0000000000       -2.2270175101
 H           1.0     2.3779555939        0.0000000000       -2.2270175101
 H           1.0    -3.7891122547        0.0000000000        0.7013585723
 H           1.0     3.7891122547        0.0000000000        0.7013585723

          INTERNUCLEAR DISTANCES (ANGS.)
          ------------------------------

                1 N          2 N          3 C          4 H          5 H     

   1 N       0.0000000    2.3161740 *  1.3035429 *  2.0428857 *  1.0092655 *
   2 N       2.3161740 *  0.0000000    1.3035429 *  2.0428857 *  2.6168260 *
   3 C       1.3035429 *  1.3035429 *  0.0000000    1.0845390 *  2.0376367 *
   4 H       2.0428857 *  2.0428857 *  1.0845390 *  0.0000000    2.9672319 *
   5 H       1.0092655 *  2.6168260 *  2.0376367 *  2.9672319 *  0.0000000  
   6 H       2.6168260 *  1.0092655 *  2.0376367 *  2.9672319 *  2.5167200 *
   7 H       1.0074059 *  3.2098665    2.0058129 *  2.3053241 *  1.7201720 *
   8 H       3.2098665    1.0074059 *  2.0058129 *  2.3053241 *  3.6127002  

                6 H          7 H          8 H     

   1 N       2.6168260 *  1.0074059 *  3.2098665  
   2 N       1.0092655 *  3.2098665    1.0074059 *
   3 C       2.0376367 *  2.0058129 *  2.0058129 *
   4 H       2.9672319 *  2.3053241 *  2.3053241 *
   5 H       2.5167200 *  1.7201720 *  3.6127002  
   6 H       0.0000000    3.6127002    1.7201720 *
   7 H       3.6127002    0.0000000    4.0102240  
   8 H       1.7201720 *  4.0102240    0.0000000  

  * ... LESS THAN  3.000


     ATOMIC BASIS SET
     ----------------
 THE CONTRACTED PRIMITIVE FUNCTIONS HAVE BEEN UNNORMALIZED

  SHELL TYPE  PRIMITIVE        EXPONENT          CONTRACTION COEFFICIENT(S)

 N         

      8   S       1             0.0988690    0.067266000000
      8   S       2             0.2114430    0.334290000000
      8   S       3             0.4521970    0.454257000000
      8   S       4             0.9670800    0.267861000000
      8   S       5             2.0682210    0.000248000000
      8   S       6             4.4231500   -0.132606000000
      8   S       7             9.4594620    0.014437000000
      8   S       8            20.2302460    0.000359000000
      8   S       9            43.2649190   -0.000094000000

      9   S      10             0.1751230    1.000000000000

     10   S      11             0.0612400    1.000000000000

     11   P      12             0.0732340    0.035758000000
     11   P      13             0.1458670    0.153945000000
     11   P      14             0.2905350    0.277656000000
     11   P      15             0.5786830    0.297676000000
     11   P      16             1.1526120    0.234403000000
     11   P      17             2.2957560    0.140321000000
     11   P      18             4.5726520    0.067219000000
     11   P      19             9.1077390    0.031594000000
     11   P      20            18.1406570    0.003301000000

     12   P      21             0.2230420    1.000000000000

     13   P      22             0.0561100    1.000000000000

     14   D      23             0.8320580    1.000000000000

 C         

     15   S      24             0.0513440    0.013991000000
     15   S      25             0.1026190    0.169852000000
     15   S      26             0.2051000    0.397529000000
     15   S      27             0.4099240    0.380369000000
     15   S      28             0.8192970    0.180113000000
     15   S      29             1.6374940   -0.033512000000
     15   S      30             3.2727910   -0.121499000000
     15   S      31             6.5411870    0.015176000000
     15   S      32            13.0735940   -0.000705000000

     16   S      33             0.1278520    1.000000000000

     17   S      34             0.0469000    1.000000000000

     18   P      35             0.0292810    0.001787000000
     18   P      36             0.0585470    0.050426000000
     18   P      37             0.1170630    0.191634000000
     18   P      38             0.2340640    0.302667000000
     18   P      39             0.4680030    0.289868000000
     18   P      40             0.9357570    0.210979000000
     18   P      41             1.8710160    0.112024000000
     18   P      42             3.7410350    0.054425000000
     18   P      43             7.4800760    0.021931000000

     19   P      44             0.1491610    1.000000000000

     20   P      45             0.0404100    1.000000000000

     21   D      46             0.5611600    1.000000000000

 H         

     22   S      47             6.4641755    0.068156440000
     22   S      48             1.1389146    0.363254590000
     22   S      49             0.2800325    0.752410060000

     23   S      50             0.0590841    1.000000000000

     24   P      51             0.5136806    1.000000000000

 H         

     28   S      52             6.4641755    0.068156440000
     28   S      53             1.1389146    0.363254590000
     28   S      54             0.2800325    0.752410060000

     29   S      55             0.0590841    1.000000000000

     30   P      56             0.5136806    1.000000000000

 H         

     34   S      57             6.4641755    0.068156440000
     34   S      58             1.1389146    0.363254590000
     34   S      59             0.2800325    0.752410060000

     35   S      60             0.0590841    1.000000000000

     36   P      61             0.5136806    1.000000000000

 TOTAL NUMBER OF BASIS SET SHELLS             =   36
 NUMBER OF CARTESIAN GAUSSIAN BASIS FUNCTIONS =   79
 NUMBER OF ELECTRONS                          =   24
 CHARGE OF MOLECULE                           =    1
 SPIN MULTIPLICITY                            =    1
 NUMBER OF OCCUPIED ORBITALS (ALPHA)          =   12
 NUMBER OF OCCUPIED ORBITALS (BETA )          =   12
 TOTAL NUMBER OF ATOMS                        =    8
 THE NUCLEAR REPULSION ENERGY IS       80.0312601802
 NOTE THIS RUN IS USING CORE POTENTIALS, AND THE NUMBER OF ELECTRONS,
 OCCUPIED ORBITALS, AND NUCLEAR REPULSION ENERGY WILL BE ADJUSTED BELOW
 AFTER REMOVAL OF THE CORE CHARGES.

     $CONTRL OPTIONS
     ---------------
 SCFTYP=RHF          RUNTYP=ENERGY       EXETYP=RUN     
 MPLEVL=       0     CITYP =NONE         CCTYP =NONE         VBTYP =NONE    
 DFTTYP=NONE         TDDFT =NONE    
 MULT  =       1     ICHARG=       1     NZVAR =       0     COORD =UNIQUE  
 PP    =READ         RELWFN=NONE         LOCAL =NONE         NUMGRD=       F
 ISPHER=      -1     NOSYM =       0     MAXIT =      30     UNITS =ANGS    
 PLTORB=       F     MOLPLT=       F     AIMPAC=       F     FRIEND=        
 NPRINT=       7     IREST =       0     GEOM  =INPUT   
 NORMF =       1     NORMP =       0     ITOL  =      20     ICUT  =       9
 INTTYP=BEST         GRDTYP=BEST         QMTTOL= 1.0E-06

     $SYSTEM OPTIONS
     ---------------
  REPLICATED MEMORY=   100000000 WORDS (ON EVERY NODE).
 DISTRIBUTED MEMDDI=           0 MILLION WORDS IN AGGREGATE,
 MEMDDI DISTRIBUTED OVER   1 PROCESSORS IS           0 WORDS/PROCESSOR.
 TOTAL MEMORY REQUESTED ON EACH PROCESSOR=   100000000 WORDS.
 TIMLIM=        3000.00 MINUTES, OR       2.1 DAYS.
 PARALL= F  BALTYP=  DLB     KDIAG=    0  COREFL= F
 MXSEQ2=     300 MXSEQ3=     150  mem10=         0

          --------------
          ECP POTENTIALS
          --------------

 PARAMETERS FOR "N-ECP   " ON ATOM    1 WITH ZCORE   2 AND LMAX  1 ARE
 FOR L= 1      COEFF    N           ZETA
    1        5.00000    1        9.23501
    2       46.17505    3        7.66830
    3      -30.18894    2        7.34486
 FOR L= 0      COEFF    N           ZETA
    1       31.69720    2        6.99537

 PARAMETERS FOR "N-ECP   " ON ATOM    2 ARE THE SAME AS ATOM   1

 PARAMETERS FOR "C-ECP   " ON ATOM    3 WITH ZCORE   2 AND LMAX  1 ARE
 FOR L= 1      COEFF    N           ZETA
    1        4.00000    1        8.35974
    2       33.43895    3        4.48362
    3      -19.17537    2        3.93831
 FOR L= 0      COEFF    N           ZETA
    1       22.55164    2        5.02992

 PARAMETERS FOR "H-ECP   " ON ATOM    4 WITH ZCORE   0 AND LMAX  0 ARE
 FOR L= 0      COEFF    N           ZETA
    1        1.00000    1       25.00000
    2       25.00000    3       10.82182
    3       -8.22801    2        9.36862

 PARAMETERS FOR "H-ECP   " ON ATOM    5 ARE THE SAME AS ATOM   4

 PARAMETERS FOR "H-ECP   " ON ATOM    6 ARE THE SAME AS ATOM   4

 PARAMETERS FOR "H-ECP   " ON ATOM    7 ARE THE SAME AS ATOM   4

 PARAMETERS FOR "H-ECP   " ON ATOM    8 ARE THE SAME AS ATOM   4

 THE ECP RUN REMOVES    6 CORE ELECTRONS, AND THE SAME NUMBER OF PROTONS.
 NUMBER OF ELECTRONS KEPT IN THE CALCULATION IS =   18
 NUMBER OF OCCUPIED ORBITALS (ALPHA) KEPT IS    =    9
 NUMBER OF OCCUPIED ORBITALS (BETA ) KEPT IS    =    9
 THE ADJUSTED NUCLEAR REPULSION ENERGY=       46.9132012474
          ECP ANGULAR INTS.........     0.01 SECONDS

          ----------------
          PROPERTIES INPUT
          ----------------

     MOMENTS            FIELD           POTENTIAL          DENSITY
 IEMOM =       1   IEFLD =       0   IEPOT =       0   IEDEN =       0
 WHERE =COMASS     WHERE =NUCLEI     WHERE =NUCLEI     WHERE =NUCLEI  
 OUTPUT=BOTH       OUTPUT=BOTH       OUTPUT=BOTH       OUTPUT=BOTH    
 IEMINT=       0   IEFINT=       0                     IEDINT=       0
                                                       MORB  =       0
          EXTRAPOLATION IN EFFECT
          SOSCF IN EFFECT
 ORBITAL PRINTING OPTION: NPREO=     1    79     2     1

     -------------------------------
     INTEGRAL TRANSFORMATION OPTIONS
     -------------------------------
     NWORD  =            0
     CUTOFF = 1.0E-09     MPTRAN =       0
     DIRTRF =       F     AOINTS =DUP     

          ----------------------
          INTEGRAL INPUT OPTIONS
          ----------------------
 NOPK  =       1 NORDER=       0 SCHWRZ=       T

     ------------------------------------------
     THE POINT GROUP IS CNV, NAXIS= 2, ORDER= 4
     ------------------------------------------

     DIMENSIONS OF THE SYMMETRY SUBSPACES ARE
 A1  =   33     A2  =    8     B1  =   26     B2  =   12

 ..... DONE SETTING UP THE RUN .....
 STEP CPU TIME =     0.03 TOTAL CPU TIME =          0.0 (      0.0 MIN)
 TOTAL WALL CLOCK TIME=          0.0 SECONDS, CPU UTILIZATION IS   100.00%

          ********************
          1 ELECTRON INTEGRALS
          ********************
 TIME TO DO ORDINARY INTEGRALS=      0.01
 TIME TO DO      ECP INTEGRALS=      0.02
 ...... END OF ONE-ELECTRON INTEGRALS ......
 STEP CPU TIME =     0.03 TOTAL CPU TIME =          0.1 (      0.0 MIN)
 TOTAL WALL CLOCK TIME=          0.1 SECONDS, CPU UTILIZATION IS   100.00%

          -------------
          GUESS OPTIONS
          -------------
          GUESS =HUCKEL            NORB  =       0          NORDER=       0
          MIX   =       F          PRTMO =       F          PUNMO =       F
          TOLZ  = 1.0E-08          TOLE  = 1.0E-05
          SYMDEN=       F          PURIFY=       F

 INITIAL GUESS ORBITALS GENERATED BY HUCKEL   ROUTINE.
 HUCKEL GUESS REQUIRES     52877 WORDS.

 SYMMETRIES FOR INITIAL GUESS ORBITALS FOLLOW.   BOTH SET(S).
     9 ORBITALS ARE OCCUPIED (    0 CORE ORBITALS).
     1=A1       2=B1       3=A1       4=A1       5=B1       6=B2       7=B1  
     8=A1       9=A2      10=B2      11=A1      12=B1      13=B1      14=A1  
    15=A1      16=A1      17=A1      18=A1      19=A1  
 ...... END OF INITIAL ORBITAL SELECTION ......
 STEP CPU TIME =     0.01 TOTAL CPU TIME =          0.1 (      0.0 MIN)
 TOTAL WALL CLOCK TIME=          0.1 SECONDS, CPU UTILIZATION IS   100.00%

                    ----------------------
                    AO INTEGRAL TECHNOLOGY
                    ----------------------
     S,P,L SHELL ROTATED AXIS INTEGRALS, REPROGRAMMED BY
        KAZUYA ISHIMURA (IMS) AND JOSE SIERRA (SYNSTAR).
     S,P,D,L SHELL ROTATED AXIS INTEGRALS PROGRAMMED BY
        KAZUYA ISHIMURA (INSTITUTE FOR MOLECULAR SCIENCE).
     S,P,D,F,G SHELL TO TOTAL QUARTET ANGULAR MOMENTUM SUM 5,
        ERIC PROGRAM BY GRAHAM FLETCHER (ELORET AND NASA ADVANCED
        SUPERCOMPUTING DIVISION, AMES RESEARCH CENTER).
     S,P,D,F,G,L SHELL GENERAL RYS QUADRATURE PROGRAMMED BY
        MICHEL DUPUIS (PACIFIC NORTHWEST NATIONAL LABORATORY).

          --------------------
          2 ELECTRON INTEGRALS
          --------------------

 THE -PK- OPTION IS OFF, THE INTEGRALS ARE NOT IN SUPERMATRIX FORM.
 STORING   15000 INTEGRALS/RECORD ON DISK, USING 12 BYTES/INTEGRAL.
 TWO ELECTRON INTEGRAL EVALUATION REQUIRES   91062 WORDS OF MEMORY.
 SCHWARZ INEQUALITY OVERHEAD:      3160 INTEGRALS, T=        0.01
 II,JST,KST,LST =  1  1  1  1 NREC =         1 INTLOC =    1
 II,JST,KST,LST =  2  1  1  1 NREC =         1 INTLOC =    1
 II,JST,KST,LST =  3  1  1  1 NREC =         1 INTLOC =    1
 II,JST,KST,LST =  4  1  1  1 NREC =         1 INTLOC =    1
 II,JST,KST,LST =  5  1  1  1 NREC =         1 INTLOC =    1
 II,JST,KST,LST =  6  1  1  1 NREC =         1 INTLOC =    1
 II,JST,KST,LST =  7  1  1  1 NREC =         1 INTLOC =    1
 II,JST,KST,LST =  8  1  1  1 NREC =         1 INTLOC =    1
 II,JST,KST,LST =  9  1  1  1 NREC =         1 INTLOC =    5
 II,JST,KST,LST = 10  1  1  1 NREC =         1 INTLOC =   32
 II,JST,KST,LST = 11  1  1  1 NREC =         1 INTLOC =  124
 II,JST,KST,LST = 12  1  1  1 NREC =         1 INTLOC =  595
 II,JST,KST,LST = 13  1  1  1 NREC =         1 INTLOC = 2269
 II,JST,KST,LST = 14  1  1  1 NREC =         1 INTLOC = 6397
 II,JST,KST,LST = 15  1  1  1 NREC =         2 INTLOC =14449
 II,JST,KST,LST = 16  1  1  1 NREC =         3 INTLOC = 6485
 II,JST,KST,LST = 17  1  1  1 NREC =         3 INTLOC =14187
 II,JST,KST,LST = 18  1  1  1 NREC =         4 INTLOC = 7600
 II,JST,KST,LST = 19  1  1  1 NREC =         6 INTLOC = 4911
 II,JST,KST,LST = 20  1  1  1 NREC =         8 INTLOC = 8525
 II,JST,KST,LST = 21  1  1  1 NREC =        11 INTLOC = 4291
 II,JST,KST,LST = 22  1  1  1 NREC =        18 INTLOC = 5887
 II,JST,KST,LST = 23  1  1  1 NREC =        19 INTLOC =14124
 II,JST,KST,LST = 24  1  1  1 NREC =        21 INTLOC = 8825
 II,JST,KST,LST = 25  1  1  1 NREC =        26 INTLOC =10739
 II,JST,KST,LST = 26  1  1  1 NREC =        26 INTLOC =10739
 II,JST,KST,LST = 27  1  1  1 NREC =        26 INTLOC =10739
 II,JST,KST,LST = 28  1  1  1 NREC =        26 INTLOC =10739
 II,JST,KST,LST = 29  1  1  1 NREC =        30 INTLOC =12265
 II,JST,KST,LST = 30  1  1  1 NREC =        35 INTLOC = 5790
 II,JST,KST,LST = 31  1  1  1 NREC =        50 INTLOC =11843
 II,JST,KST,LST = 32  1  1  1 NREC =        50 INTLOC =11843
 II,JST,KST,LST = 33  1  1  1 NREC =        50 INTLOC =11843
 II,JST,KST,LST = 34  1  1  1 NREC =        50 INTLOC =11843
 II,JST,KST,LST = 35  1  1  1 NREC =        57 INTLOC = 5184
 II,JST,KST,LST = 36  1  1  1 NREC =        64 INTLOC = 8110
 SCHWARZ INEQUALITY TEST SKIPPED           1 INTEGRAL BLOCKS.
 TOTAL NUMBER OF NONZERO TWO-ELECTRON INTEGRALS =             1303401
         87 INTEGRAL RECORDS WERE STORED ON DISK FILE  8.
  ...... END OF TWO-ELECTRON INTEGRALS .....
 STEP CPU TIME =     0.45 TOTAL CPU TIME =          0.5 (      0.0 MIN)
 TOTAL WALL CLOCK TIME=          0.5 SECONDS, CPU UTILIZATION IS    98.11%

          --------------------------
                 RHF SCF CALCULATION
          --------------------------

     NUCLEAR ENERGY =        46.9132012474
     MAXIT =   30     NPUNCH=    2
     EXTRAP=T  DAMP=F  SHIFT=F  RSTRCT=F  DIIS=F  DEM=F  SOSCF=T
     DENSITY MATRIX CONV=  1.00E-05
     SOSCF WILL OPTIMIZE     630 ORBITAL ROTATIONS, SOGTOL=   0.250
     MEMORY REQUIRED FOR RHF ITERS=     77313 WORDS.

 ITER EX DEM     TOTAL ENERGY        E CHANGE  DENSITY CHANGE     ORB. GRAD
   1  0  0      -27.2459977139   -27.2459977139   0.629220915   0.000000000
          ---------------START SECOND ORDER SCF---------------
   2  1  0      -27.6429640103    -0.3969662964   0.284796734   0.089269495
   3  2  0      -27.6800185482    -0.0370545380   0.093172934   0.016743576
   4  3  0      -27.6866110617    -0.0065925135   0.029211531   0.005496470
   5  4  0      -27.6870468163    -0.0004357545   0.007004786   0.001953377
   6  5  0      -27.6870860410    -0.0000392247   0.002356088   0.000435973
   7  6  0      -27.6870894968    -0.0000034558   0.000430788   0.000079680
   8  7  0      -27.6870896264    -0.0000001296   0.000048042   0.000010372
   9  8  0      -27.6870896293    -0.0000000030   0.000018100   0.000002682
  10  9  0      -27.6870896295    -0.0000000002   0.000003372   0.000000904
  11 10  0      -27.6870896296    -0.0000000000   0.000001068   0.000000370

          -----------------
          DENSITY CONVERGED
          -----------------
     TIME TO FORM FOCK OPERATORS=       0.1 SECONDS (       0.0 SEC/ITER)
     TIME TO SOLVE SCF EQUATIONS=       0.0 SECONDS (       0.0 SEC/ITER)

 FINAL RHF ENERGY IS      -27.6870896296 AFTER  11 ITERATIONS

          ------------
          EIGENVECTORS
          ------------

                      1          2          3          4          5
                   -1.5436    -1.4342    -1.1224    -1.0150    -0.9814
                     A1         B1         A1         A1         B1  
    1  N  1  S    0.492291   0.567800  -0.246721   0.040291   0.044950
    2  N  1  S   -0.196505  -0.185077   0.060010  -0.003249   0.018618
    3  N  1  S    0.078511   0.100200   0.002262   0.044631   0.073010
    4  N  1  X    0.102486   0.019759   0.281453  -0.349211  -0.276536
    5  N  1  Y   -0.000000   0.000000  -0.000000   0.000000   0.000000
    6  N  1  Z    0.037659   0.035133   0.207621   0.261367  -0.421717
    7  N  1  X   -0.040502   0.007016  -0.076046   0.083149   0.074571
    8  N  1  Y   -0.000000   0.000000  -0.000000   0.000000   0.000000
    9  N  1  Z   -0.004014  -0.009291  -0.050011  -0.058309   0.108921
   10  N  1  X   -0.024111   0.016003  -0.003063   0.012759  -0.042970
   11  N  1  Y   -0.000000   0.000000  -0.000000   0.000000   0.000000
   12  N  1  Z    0.024069  -0.074201   0.027781  -0.011945   0.062980
   13  N  1 XX    0.019024   0.010773   0.005487  -0.003030  -0.008959
   14  N  1 YY    0.000144  -0.000572   0.000410   0.001712   0.000549
   15  N  1 ZZ    0.007662   0.012982  -0.010677   0.002836   0.009808
   16  N  1 XY   -0.000000   0.000000  -0.000000   0.000000   0.000000
   17  N  1 XZ    0.005088   0.003544   0.013425  -0.008883  -0.012306
   18  N  1 YZ   -0.000000   0.000000  -0.000000   0.000000   0.000000
   19  N  2  S    0.492291  -0.567800  -0.246721   0.040291  -0.044950
   20  N  2  S   -0.196505   0.185077   0.060010  -0.003249  -0.018618
   21  N  2  S    0.078511  -0.100200   0.002262   0.044631  -0.073010
   22  N  2  X   -0.102486   0.019759  -0.281453   0.349211  -0.276536
   23  N  2  Y   -0.000000   0.000000  -0.000000   0.000000   0.000000
   24  N  2  Z    0.037659  -0.035133   0.207621   0.261367   0.421717
   25  N  2  X    0.040502   0.007016   0.076046  -0.083149   0.074571
   26  N  2  Y   -0.000000   0.000000  -0.000000   0.000000   0.000000
   27  N  2  Z   -0.004014   0.009291  -0.050011  -0.058309  -0.108921
   28  N  2  X    0.024111   0.016003   0.003063  -0.012759  -0.042970
   29  N  2  Y   -0.000000   0.000000  -0.000000   0.000000   0.000000
   30  N  2  Z    0.024069   0.074201   0.027781  -0.011945  -0.062980
   31  N  2 XX    0.019024  -0.010773   0.005487  -0.003030   0.008959
   32  N  2 YY    0.000144   0.000572   0.000410   0.001712  -0.000549
   33  N  2 ZZ    0.007662  -0.012982  -0.010677   0.002836  -0.009808
   34  N  2 XY   -0.000000   0.000000  -0.000000   0.000000   0.000000
   35  N  2 XZ   -0.005088   0.003544  -0.013425   0.008883  -0.012306
   36  N  2 YZ   -0.000000   0.000000  -0.000000   0.000000   0.000000
   37  C  3  S    0.507867   0.000000   0.599864  -0.030854   0.000000
   38  C  3  S   -0.111212   0.000000  -0.189691  -0.017503   0.000000
   39  C  3  S   -0.041251   0.000000  -0.063504   0.039598   0.000000
   40  C  3  X   -0.000000  -0.328337  -0.000000   0.000000   0.506566
   41  C  3  Y   -0.000000   0.000000  -0.000000   0.000000   0.000000
   42  C  3  Z   -0.135324   0.000000   0.103566   0.425142   0.000000
   43  C  3  X   -0.000000   0.073456  -0.000000   0.000000  -0.084162
   44  C  3  Y   -0.000000   0.000000  -0.000000   0.000000   0.000000
   45  C  3  Z   -0.011476   0.000000  -0.045761  -0.092616   0.000000
   46  C  3  X   -0.000000  -0.035342  -0.000000   0.000000  -0.007734
   47  C  3  Y   -0.000000   0.000000  -0.000000   0.000000   0.000000
   48  C  3  Z   -0.007341   0.000000   0.009434   0.029194   0.000000
   49  C  3 XX    0.028513   0.000000   0.008847   0.012020   0.000000
   50  C  3 YY   -0.013116   0.000000  -0.011603   0.005383   0.000000
   51  C  3 ZZ    0.002136   0.000000   0.009742  -0.012433   0.000000
   52  C  3 XY   -0.000000   0.000000  -0.000000   0.000000   0.000000
   53  C  3 XZ   -0.000000   0.030057  -0.000000   0.000000  -0.015915
   54  C  3 YZ   -0.000000   0.000000  -0.000000   0.000000   0.000000
   55  H  4  S    0.066903   0.000000   0.210383   0.193065   0.000000
   56  H  4  S    0.017135   0.000000  -0.013301  -0.067361   0.000000
   57  H  4  X   -0.000000  -0.002688  -0.000000   0.000000   0.003693
   58  H  4  Y   -0.000000   0.000000  -0.000000   0.000000   0.000000
   59  H  4  Z   -0.010627   0.000000  -0.025911  -0.022984   0.000000
   60  H  5  S    0.096931   0.123309  -0.190525  -0.108090   0.266262
   61  H  5  S    0.000416  -0.122544   0.055208   0.001645   0.013225
   62  H  5  X    0.004920   0.001665   0.003099  -0.016244  -0.004078
   63  H  5  Y   -0.000000   0.000000  -0.000000   0.000000   0.000000
   64  H  5  Z    0.017054   0.021946  -0.027589  -0.012680   0.033396
   65  H  6  S    0.096931  -0.123309  -0.190525  -0.108090  -0.266262
   66  H  6  S    0.000416   0.122544   0.055208   0.001645  -0.013225
   67  H  6  X   -0.004920   0.001665  -0.003099   0.016244  -0.004078
   68  H  6  Y   -0.000000   0.000000  -0.000000   0.000000   0.000000
   69  H  6  Z    0.017054  -0.021946  -0.027589  -0.012680  -0.033396
   70  H  7  S    0.085412   0.140311  -0.136663   0.245260   0.019588
   71  H  7  S   -0.059962  -0.003835  -0.011174  -0.024643  -0.091329
   72  H  7  X    0.015111   0.020687  -0.009937   0.029782  -0.008354
   73  H  7  Y   -0.000000   0.000000  -0.000000   0.000000   0.000000
   74  H  7  Z   -0.005287  -0.013877   0.019481  -0.013809  -0.015031
   75  H  8  S    0.085412  -0.140311  -0.136663   0.245260  -0.019588
   76  H  8  S   -0.059962   0.003835  -0.011174  -0.024643   0.091329
   77  H  8  X   -0.015111   0.020687   0.009937  -0.029782  -0.008354
   78  H  8  Y   -0.000000   0.000000  -0.000000   0.000000   0.000000
   79  H  8  Z   -0.005287   0.013877   0.019481  -0.013809   0.015031

                      6          7          8          9         10
                   -0.8998    -0.8342    -0.8007    -0.6476    -0.0974
                     B1         A1         B2         A2         A1  
    1  N  1  S    0.027930  -0.068254  -0.000000   0.000000  -0.194670
    2  N  1  S    0.049229  -0.023511  -0.000000   0.000000  -0.021455
    3  N  1  S   -0.010424   0.035095  -0.000000   0.000000  -2.808912
    4  N  1  X    0.445058  -0.061513  -0.000000   0.000000   0.063241
    5  N  1  Y   -0.000000  -0.000000   0.504820   0.634679  -0.000000
    6  N  1  Z   -0.277827  -0.370475  -0.000000   0.000000   0.045198
    7  N  1  X   -0.077909   0.001891  -0.000000   0.000000  -0.048109
    8  N  1  Y   -0.000000  -0.000000   0.004105   0.056998  -0.000000
    9  N  1  Z    0.070495   0.068350  -0.000000   0.000000   0.007449
   10  N  1  X   -0.017185   0.010556  -0.000000   0.000000   0.004747
   11  N  1  Y   -0.000000  -0.000000  -0.010285   0.031884  -0.000000
   12  N  1  Z    0.027753   0.020477  -0.000000   0.000000  -0.423889
   13  N  1 XX   -0.005922  -0.018970  -0.000000   0.000000   0.003849
   14  N  1 YY    0.000447  -0.000140  -0.000000   0.000000  -0.000117
   15  N  1 ZZ    0.004580   0.019944  -0.000000   0.000000  -0.003892
   16  N  1 XY   -0.000000  -0.000000   0.017378   0.006338  -0.000000
   17  N  1 XZ    0.016376   0.008325  -0.000000   0.000000  -0.006340
   18  N  1 YZ   -0.000000  -0.000000   0.009152   0.003767  -0.000000
   19  N  2  S   -0.027930  -0.068254  -0.000000   0.000000  -0.194670
   20  N  2  S   -0.049229  -0.023511  -0.000000   0.000000  -0.021455
   21  N  2  S    0.010424   0.035095  -0.000000   0.000000  -2.808912
   22  N  2  X    0.445058   0.061513  -0.000000   0.000000  -0.063241
   23  N  2  Y   -0.000000  -0.000000   0.504820  -0.634679  -0.000000
   24  N  2  Z    0.277827  -0.370475  -0.000000   0.000000   0.045198
   25  N  2  X   -0.077909  -0.001891  -0.000000   0.000000   0.048109
   26  N  2  Y   -0.000000  -0.000000   0.004105  -0.056998  -0.000000
   27  N  2  Z   -0.070495   0.068350  -0.000000   0.000000   0.007449
   28  N  2  X   -0.017185  -0.010556  -0.000000   0.000000  -0.004747
   29  N  2  Y   -0.000000  -0.000000  -0.010285  -0.031884  -0.000000
   30  N  2  Z   -0.027753   0.020477  -0.000000   0.000000  -0.423889
   31  N  2 XX    0.005922  -0.018970  -0.000000   0.000000   0.003849
   32  N  2 YY   -0.000447  -0.000140  -0.000000   0.000000  -0.000117
   33  N  2 ZZ   -0.004580   0.019944  -0.000000   0.000000  -0.003892
   34  N  2 XY   -0.000000  -0.000000  -0.017378   0.006338  -0.000000
   35  N  2 XZ    0.016376  -0.008325  -0.000000   0.000000   0.006340
   36  N  2 YZ   -0.000000  -0.000000   0.009152  -0.003767  -0.000000
   37  C  3  S   -0.000000   0.080440  -0.000000   0.000000  -0.095947
   38  C  3  S   -0.000000   0.023760  -0.000000   0.000000   0.330770
   39  C  3  S   -0.000000  -0.088992  -0.000000   0.000000   3.863848
   40  C  3  X   -0.280950  -0.000000  -0.000000   0.000000  -0.000000
   41  C  3  Y   -0.000000  -0.000000   0.488869   0.000000  -0.000000
   42  C  3  Z   -0.000000   0.540015  -0.000000   0.000000  -0.135094
   43  C  3  X    0.135322  -0.000000  -0.000000   0.000000  -0.000000
   44  C  3  Y   -0.000000  -0.000000  -0.063665   0.000000  -0.000000
   45  C  3  Z   -0.000000  -0.157571  -0.000000   0.000000  -0.100464
   46  C  3  X    0.035343  -0.000000  -0.000000   0.000000  -0.000000
   47  C  3  Y   -0.000000  -0.000000  -0.014539   0.000000  -0.000000
   48  C  3  Z   -0.000000  -0.035450  -0.000000   0.000000   0.172058
   49  C  3 XX   -0.000000  -0.046096  -0.000000   0.000000  -0.012045
   50  C  3 YY   -0.000000   0.002578  -0.000000   0.000000   0.006571
   51  C  3 ZZ   -0.000000   0.052226  -0.000000   0.000000   0.006113
   52  C  3 XY   -0.000000  -0.000000  -0.000000  -0.063513  -0.000000
   53  C  3 XZ    0.043853  -0.000000  -0.000000   0.000000  -0.000000
   54  C  3 YZ   -0.000000  -0.000000  -0.026829   0.000000  -0.000000
   55  H  4  S   -0.000000   0.371769  -0.000000   0.000000  -0.034813
   56  H  4  S   -0.000000   0.071589  -0.000000   0.000000  -0.732481
   57  H  4  X   -0.008880  -0.000000  -0.000000   0.000000  -0.000000
   58  H  4  Y   -0.000000  -0.000000   0.010296   0.000000  -0.000000
   59  H  4  Z   -0.000000  -0.019682  -0.000000   0.000000   0.017636
   60  H  5  S    0.153738   0.234748  -0.000000   0.000000  -0.013163
   61  H  5  S    0.025639   0.018326  -0.000000   0.000000   0.459058
   62  H  5  X    0.017644   0.005064  -0.000000   0.000000   0.011762
   63  H  5  Y   -0.000000  -0.000000   0.014386   0.018788  -0.000000
   64  H  5  Z    0.016992   0.018185  -0.000000   0.000000  -0.021093
   65  H  6  S   -0.153738   0.234748  -0.000000   0.000000  -0.013163
   66  H  6  S   -0.025639   0.018326  -0.000000   0.000000   0.459058
   67  H  6  X    0.017644  -0.005064  -0.000000   0.000000  -0.011762
   68  H  6  Y   -0.000000  -0.000000   0.014386  -0.018788  -0.000000
   69  H  6  Z   -0.016992   0.018185  -0.000000   0.000000  -0.021093
   70  H  7  S   -0.312012  -0.125328  -0.000000   0.000000   0.039231
   71  H  7  S   -0.004891  -0.008618  -0.000000   0.000000   1.207119
   72  H  7  X   -0.028717  -0.014713  -0.000000   0.000000  -0.019161
   73  H  7  Y   -0.000000  -0.000000   0.013576   0.020379  -0.000000
   74  H  7  Z    0.016083  -0.002142  -0.000000   0.000000   0.022560
   75  H  8  S    0.312012  -0.125328  -0.000000   0.000000   0.039231
   76  H  8  S    0.004891  -0.008618  -0.000000   0.000000   1.207119
   77  H  8  X   -0.028717   0.014713  -0.000000   0.000000   0.019161
   78  H  8  Y   -0.000000  -0.000000   0.013576  -0.020379  -0.000000
   79  H  8  Z   -0.016083  -0.002142  -0.000000   0.000000   0.022560

                     11         12         13         14         15
                   -0.0796    -0.0780    -0.0734    -0.0426    -0.0174
                     A1         B2         B1         B2         B1  
    1  N  1  S    0.062059   0.000000   0.166164  -0.000000  -0.076373
    2  N  1  S    0.044501   0.000000   0.150809  -0.000000  -0.133954
    3  N  1  S    0.995963   0.000000   2.496298  -0.000000  -0.867617
    4  N  1  X    0.028092   0.000000  -0.099332  -0.000000  -0.033128
    5  N  1  Y    0.000000  -0.338891  -0.000000  -0.005958  -0.000000
    6  N  1  Z   -0.118106   0.000000   0.010163  -0.000000   0.152635
    7  N  1  X    0.053521   0.000000   0.087218  -0.000000  -0.006190
    8  N  1  Y    0.000000  -0.132776  -0.000000   0.049107  -0.000000
    9  N  1  Z    0.002078   0.000000   0.062583  -0.000000   0.009025
   10  N  1  X    0.411757   0.000000  -0.233725  -0.000000  -2.752270
   11  N  1  Y    0.000000  -0.702405  -0.000000  -0.079341  -0.000000
   12  N  1  Z   -1.037771   0.000000   0.775666  -0.000000   2.224616
   13  N  1 XX    0.005739   0.000000   0.001333  -0.000000   0.001283
   14  N  1 YY    0.000370   0.000000   0.002254  -0.000000  -0.002486
   15  N  1 ZZ   -0.005614   0.000000  -0.004009  -0.000000   0.002261
   16  N  1 XY    0.000000   0.020734  -0.000000  -0.012655  -0.000000
   17  N  1 XZ   -0.004036   0.000000  -0.000259  -0.000000   0.010831
   18  N  1 YZ    0.000000   0.014629  -0.000000  -0.006197  -0.000000
   19  N  2  S    0.062059   0.000000  -0.166164  -0.000000   0.076373
   20  N  2  S    0.044501   0.000000  -0.150809  -0.000000   0.133954
   21  N  2  S    0.995963   0.000000  -2.496298  -0.000000   0.867617
   22  N  2  X   -0.028092   0.000000  -0.099332  -0.000000  -0.033128
   23  N  2  Y    0.000000  -0.338891  -0.000000  -0.005958  -0.000000
   24  N  2  Z   -0.118106   0.000000  -0.010163  -0.000000  -0.152635
   25  N  2  X   -0.053521   0.000000   0.087218  -0.000000  -0.006190
   26  N  2  Y    0.000000  -0.132776  -0.000000   0.049107  -0.000000
   27  N  2  Z    0.002078   0.000000  -0.062583  -0.000000  -0.009025
   28  N  2  X   -0.411757   0.000000  -0.233725  -0.000000  -2.752270
   29  N  2  Y    0.000000  -0.702405  -0.000000  -0.079341  -0.000000
   30  N  2  Z   -1.037771   0.000000  -0.775666  -0.000000  -2.224616
   31  N  2 XX    0.005739   0.000000  -0.001333  -0.000000  -0.001283
   32  N  2 YY    0.000370   0.000000  -0.002254  -0.000000   0.002486
   33  N  2 ZZ   -0.005614   0.000000   0.004009  -0.000000  -0.002261
   34  N  2 XY    0.000000  -0.020734  -0.000000   0.012655  -0.000000
   35  N  2 XZ    0.004036   0.000000  -0.000259  -0.000000   0.010831
   36  N  2 YZ    0.000000   0.014629  -0.000000  -0.006197  -0.000000
   37  C  3  S   -0.130556   0.000000  -0.000000  -0.000000  -0.000000
   38  C  3  S   -0.255700   0.000000  -0.000000  -0.000000  -0.000000
   39  C  3  S    0.124578   0.000000  -0.000000  -0.000000  -0.000000
   40  C  3  X    0.000000   0.000000   0.070493  -0.000000  -0.107398
   41  C  3  Y    0.000000   0.629841  -0.000000  -0.349412  -0.000000
   42  C  3  Z   -0.137469   0.000000  -0.000000  -0.000000  -0.000000
   43  C  3  X    0.000000   0.000000   0.375830  -0.000000  -0.147104
   44  C  3  Y    0.000000   0.368592  -0.000000  -0.309817  -0.000000
   45  C  3  Z    0.146086   0.000000  -0.000000  -0.000000  -0.000000
   46  C  3  X    0.000000   0.000000   1.986907  -0.000000   1.653045
   47  C  3  Y    0.000000   1.252160  -0.000000   1.279670  -0.000000
   48  C  3  Z    2.026641   0.000000  -0.000000  -0.000000  -0.000000
   49  C  3 XX   -0.021950   0.000000  -0.000000  -0.000000  -0.000000
   50  C  3 YY   -0.002625   0.000000  -0.000000  -0.000000  -0.000000
   51  C  3 ZZ    0.028092   0.000000  -0.000000  -0.000000  -0.000000
   52  C  3 XY    0.000000   0.000000  -0.000000  -0.000000  -0.000000
   53  C  3 XZ    0.000000   0.000000   0.001456  -0.000000  -0.015174
   54  C  3 YZ    0.000000   0.022262  -0.000000   0.008027  -0.000000
   55  H  4  S    0.029817   0.000000  -0.000000  -0.000000  -0.000000
   56  H  4  S   -0.789192   0.000000  -0.000000  -0.000000  -0.000000
   57  H  4  X    0.000000   0.000000   0.002565  -0.000000   0.009615
   58  H  4  Y    0.000000   0.036774  -0.000000   0.004172  -0.000000
   59  H  4  Z    0.038250   0.000000  -0.000000  -0.000000  -0.000000
   60  H  5  S   -0.021672   0.000000  -0.033484  -0.000000   0.019311
   61  H  5  S   -1.411445   0.000000   0.022114  -0.000000   3.706762
   62  H  5  X    0.001441   0.000000  -0.004816  -0.000000  -0.012598
   63  H  5  Y    0.000000  -0.026678  -0.000000   0.009606  -0.000000
   64  H  5  Z    0.025924   0.000000   0.023302  -0.000000  -0.017909
   65  H  6  S   -0.021672   0.000000   0.033484  -0.000000  -0.019311
   66  H  6  S   -1.411445   0.000000  -0.022114  -0.000000  -3.706762
   67  H  6  X   -0.001441   0.000000  -0.004816  -0.000000  -0.012598
   68  H  6  Y    0.000000  -0.026678  -0.000000   0.009606  -0.000000
   69  H  6  Z    0.025924   0.000000  -0.023302  -0.000000   0.017909
   70  H  7  S    0.011742   0.000000   0.005672  -0.000000  -0.005528
   71  H  7  S    0.863178   0.000000  -1.164800  -0.000000  -3.626578
   72  H  7  X   -0.005706   0.000000   0.022387  -0.000000   0.007457
   73  H  7  Y    0.000000  -0.016257  -0.000000   0.009337  -0.000000
   74  H  7  Z   -0.001093   0.000000  -0.026949  -0.000000  -0.007858
   75  H  8  S    0.011742   0.000000  -0.005672  -0.000000   0.005528
   76  H  8  S    0.863178   0.000000   1.164800  -0.000000   3.626578
   77  H  8  X    0.005706   0.000000   0.022387  -0.000000   0.007457
   78  H  8  Y    0.000000  -0.016257  -0.000000   0.009337  -0.000000
   79  H  8  Z   -0.001093   0.000000   0.026949  -0.000000   0.007858

                     16         17         18         19         20
                   -0.0142    -0.0117     0.0325     0.0342     0.0368
                     A1         A1         A2         B1         A1  
    1  N  1  S   -0.002542   0.064973   0.000000  -0.074812   0.096936
    2  N  1  S    0.053129   0.342569   0.000000   0.054981  -0.137357
    3  N  1  S   -0.112150  -0.018012   0.000000  -0.502136   0.618725
    4  N  1  X   -0.046129  -0.076313   0.000000  -0.086645  -0.008849
    5  N  1  Y    0.000000  -0.000000  -0.177492   0.000000  -0.000000
    6  N  1  Z   -0.096820   0.112503   0.000000   0.035280   0.052887
    7  N  1  X   -0.010097   0.066494   0.000000  -0.001577  -0.148146
    8  N  1  Y    0.000000  -0.000000  -0.196840   0.000000  -0.000000
    9  N  1  Z   -0.053913   0.104061   0.000000   0.027449   0.001271
   10  N  1  X   -1.465521  -0.072039   0.000000   0.518513  -2.313202
   11  N  1  Y    0.000000  -0.000000   1.240567   0.000000  -0.000000
   12  N  1  Z   -1.154071   0.711453   0.000000   3.036842  -0.586540
   13  N  1 XX   -0.003690  -0.007851   0.000000  -0.009266   0.001188
   14  N  1 YY    0.013009   0.004906   0.000000  -0.002287   0.000190
   15  N  1 ZZ   -0.006740   0.002197   0.000000   0.017297  -0.005920
   16  N  1 XY    0.000000  -0.000000  -0.009128   0.000000  -0.000000
   17  N  1 XZ    0.007808  -0.003279   0.000000   0.001012   0.016675
   18  N  1 YZ    0.000000  -0.000000  -0.002172   0.000000  -0.000000
   19  N  2  S   -0.002542   0.064973   0.000000   0.074812   0.096936
   20  N  2  S    0.053129   0.342569   0.000000  -0.054981  -0.137357
   21  N  2  S   -0.112150  -0.018012   0.000000   0.502136   0.618725
   22  N  2  X    0.046129   0.076313   0.000000  -0.086645   0.008849
   23  N  2  Y    0.000000  -0.000000   0.177492   0.000000  -0.000000
   24  N  2  Z   -0.096820   0.112503   0.000000  -0.035280   0.052887
   25  N  2  X    0.010097  -0.066494   0.000000  -0.001577   0.148146
   26  N  2  Y    0.000000  -0.000000   0.196840   0.000000  -0.000000
   27  N  2  Z   -0.053913   0.104061   0.000000  -0.027449   0.001271
   28  N  2  X    1.465521   0.072039   0.000000   0.518513   2.313202
   29  N  2  Y    0.000000  -0.000000  -1.240567   0.000000  -0.000000
   30  N  2  Z   -1.154071   0.711453   0.000000  -3.036842  -0.586540
   31  N  2 XX   -0.003690  -0.007851   0.000000   0.009266   0.001188
   32  N  2 YY    0.013009   0.004906   0.000000   0.002287   0.000190
   33  N  2 ZZ   -0.006740   0.002197   0.000000  -0.017297  -0.005920
   34  N  2 XY    0.000000  -0.000000  -0.009128   0.000000  -0.000000
   35  N  2 XZ   -0.007808   0.003279   0.000000   0.001012  -0.016675
   36  N  2 YZ    0.000000  -0.000000   0.002172   0.000000  -0.000000
   37  C  3  S    0.017934  -0.173732   0.000000   0.000000   0.087886
   38  C  3  S    0.349965  -1.103025   0.000000   0.000000   1.720882
   39  C  3  S    9.488677   3.048388   0.000000   0.000000   4.967770
   40  C  3  X    0.000000  -0.000000   0.000000   0.022705  -0.000000
   41  C  3  Y    0.000000  -0.000000   0.000000   0.000000  -0.000000
   42  C  3  Z    0.084918  -0.000535   0.000000   0.000000  -0.028839
   43  C  3  X    0.000000  -0.000000   0.000000   0.252248  -0.000000
   44  C  3  Y    0.000000  -0.000000   0.000000   0.000000  -0.000000
   45  C  3  Z    0.019400   0.124107   0.000000   0.000000  -0.223485
   46  C  3  X    0.000000  -0.000000   0.000000  -0.625184  -0.000000
   47  C  3  Y    0.000000  -0.000000   0.000000   0.000000  -0.000000
   48  C  3  Z   -1.124807   0.778440   0.000000   0.000000   1.614213
   49  C  3 XX   -0.014272   0.008019   0.000000   0.000000   0.027659
   50  C  3 YY    0.027878   0.026900   0.000000   0.000000  -0.027411
   51  C  3 ZZ   -0.011498  -0.021118   0.000000   0.000000  -0.022829
   52  C  3 XY    0.000000  -0.000000   0.006462   0.000000  -0.000000
   53  C  3 XZ    0.000000  -0.000000   0.000000  -0.044896  -0.000000
   54  C  3 YZ    0.000000  -0.000000   0.000000   0.000000  -0.000000
   55  H  4  S   -0.029750  -0.039327   0.000000   0.000000  -0.038793
   56  H  4  S   -1.716327  -1.497236   0.000000   0.000000  -1.253049
   57  H  4  X    0.000000  -0.000000   0.000000  -0.033669  -0.000000
   58  H  4  Y    0.000000  -0.000000   0.000000   0.000000  -0.000000
   59  H  4  Z   -0.009630  -0.003115   0.000000   0.000000   0.006331
   60  H  5  S   -0.044469  -0.006271   0.000000   0.087257   0.006508
   61  H  5  S   -3.276916   1.316908   0.000000   4.520244   0.244859
   62  H  5  X   -0.012019   0.000616   0.000000  -0.004515  -0.019034
   63  H  5  Y    0.000000  -0.000000   0.007269   0.000000  -0.000000
   64  H  5  Z    0.006640   0.001334   0.000000  -0.022330   0.008389
   65  H  6  S   -0.044469  -0.006271   0.000000  -0.087257   0.006508
   66  H  6  S   -3.276916   1.316908   0.000000  -4.520244   0.244859
   67  H  6  X    0.012019  -0.000616   0.000000  -0.004515   0.019034
   68  H  6  Y    0.000000  -0.000000  -0.007269   0.000000  -0.000000
   69  H  6  Z    0.006640   0.001334   0.000000   0.022330   0.008389
   70  H  7  S   -0.059905  -0.039937   0.000000  -0.022414  -0.090244
   71  H  7  S   -1.359672  -2.172384   0.000000  -2.743688  -3.337670
   72  H  7  X   -0.000188   0.010052   0.000000   0.014188   0.011567
   73  H  7  Y    0.000000  -0.000000   0.016262   0.000000  -0.000000
   74  H  7  Z   -0.012171  -0.000875   0.000000   0.016286  -0.010357
   75  H  8  S   -0.059905  -0.039937   0.000000   0.022414  -0.090244
   76  H  8  S   -1.359672  -2.172384   0.000000   2.743688  -3.337670
   77  H  8  X    0.000188  -0.010052   0.000000   0.014188  -0.011567
   78  H  8  Y    0.000000  -0.000000  -0.016262   0.000000  -0.000000
   79  H  8  Z   -0.012171  -0.000875   0.000000  -0.016286  -0.010357

                     21         22         23         24         25
                    0.0595     0.0615     0.0740     0.1125     0.1231
                     A1         B1         B2         A1         A1  
    1  N  1  S    0.038816  -0.106716   0.000000   0.137213   0.179459
    2  N  1  S   -0.052166  -0.171205   0.000000   0.463779   1.174003
    3  N  1  S    0.971320  -3.042200   0.000000  -5.610988  -8.161365
    4  N  1  X    0.031881   0.095950   0.000000   0.036810  -0.051075
    5  N  1  Y    0.000000   0.000000   0.299119   0.000000  -0.000000
    6  N  1  Z   -0.051565  -0.035090   0.000000  -0.152327   0.027316
    7  N  1  X   -0.039471   0.038823   0.000000  -0.097795  -0.095260
    8  N  1  Y    0.000000   0.000000   0.274707   0.000000  -0.000000
    9  N  1  Z    0.000829  -0.067943   0.000000  -0.233713   0.020559
   10  N  1  X   -1.021482   2.584374   0.000000  -0.984898   1.151910
   11  N  1  Y    0.000000   0.000000  -1.787439   0.000000  -0.000000
   12  N  1  Z   -0.585020   2.278281   0.000000   4.597899  -4.361961
   13  N  1 XX    0.008808   0.001214   0.000000  -0.014233  -0.003128
   14  N  1 YY    0.001133  -0.012326   0.000000  -0.007727  -0.015190
   15  N  1 ZZ   -0.014680   0.015677   0.000000   0.004678   0.001656
   16  N  1 XY    0.000000   0.000000  -0.007644   0.000000  -0.000000
   17  N  1 XZ   -0.009989  -0.001879   0.000000   0.002572   0.000756
   18  N  1 YZ    0.000000   0.000000  -0.000236   0.000000  -0.000000
   19  N  2  S    0.038816   0.106716   0.000000   0.137213   0.179459
   20  N  2  S   -0.052166   0.171205   0.000000   0.463779   1.174003
   21  N  2  S    0.971320   3.042200   0.000000  -5.610988  -8.161365
   22  N  2  X   -0.031881   0.095950   0.000000  -0.036810   0.051075
   23  N  2  Y    0.000000   0.000000   0.299119   0.000000  -0.000000
   24  N  2  Z   -0.051565   0.035090   0.000000  -0.152327   0.027316
   25  N  2  X    0.039471   0.038823   0.000000   0.097795   0.095260
   26  N  2  Y    0.000000   0.000000   0.274707   0.000000  -0.000000
   27  N  2  Z    0.000829   0.067943   0.000000  -0.233713   0.020559
   28  N  2  X    1.021482   2.584374   0.000000   0.984898  -1.151910
   29  N  2  Y    0.000000   0.000000  -1.787439   0.000000  -0.000000
   30  N  2  Z   -0.585020  -2.278281   0.000000   4.597899  -4.361961
   31  N  2 XX    0.008808  -0.001214   0.000000  -0.014233  -0.003128
   32  N  2 YY    0.001133   0.012326   0.000000  -0.007727  -0.015190
   33  N  2 ZZ   -0.014680  -0.015677   0.000000   0.004678   0.001656
   34  N  2 XY    0.000000   0.000000   0.007644   0.000000  -0.000000
   35  N  2 XZ    0.009989  -0.001879   0.000000  -0.002572  -0.000756
   36  N  2 YZ    0.000000   0.000000  -0.000236   0.000000  -0.000000
   37  C  3  S   -0.205879   0.000000   0.000000  -0.072793  -0.062706
   38  C  3  S   -0.444214   0.000000   0.000000   0.631200   1.014741
   39  C  3  S   -2.839193   0.000000   0.000000   3.526795   8.655306
   40  C  3  X    0.000000  -0.070703   0.000000   0.000000  -0.000000
   41  C  3  Y    0.000000   0.000000  -0.300149   0.000000  -0.000000
   42  C  3  Z   -0.280026   0.000000   0.000000  -0.028964   0.135300
   43  C  3  X    0.000000   0.071443   0.000000   0.000000  -0.000000
   44  C  3  Y    0.000000   0.000000  -0.034444   0.000000  -0.000000
   45  C  3  Z   -0.530805   0.000000   0.000000  -0.441003   0.254882
   46  C  3  X    0.000000   5.855293   0.000000   0.000000  -0.000000
   47  C  3  Y    0.000000   0.000000   2.626309   0.000000  -0.000000
   48  C  3  Z   -4.968009   0.000000   0.000000  -1.954989  -1.121348
   49  C  3 XX   -0.009385   0.000000   0.000000   0.034624   0.008065
   50  C  3 YY   -0.011219   0.000000   0.000000  -0.018827  -0.033226
   51  C  3 ZZ    0.038540   0.000000   0.000000  -0.004967   0.002925
   52  C  3 XY    0.000000   0.000000   0.000000   0.000000  -0.000000
   53  C  3 XZ    0.000000  -0.014680   0.000000   0.000000  -0.000000
   54  C  3 YZ    0.000000   0.000000  -0.000559   0.000000  -0.000000
   55  H  4  S    0.155882   0.000000   0.000000   0.041830   0.050694
   56  H  4  S    8.524167   0.000000   0.000000  -2.148087   1.312165
   57  H  4  X    0.000000  -0.014940   0.000000   0.000000  -0.000000
   58  H  4  Y    0.000000   0.000000  -0.019539   0.000000  -0.000000
   59  H  4  Z    0.029819   0.000000   0.000000   0.002385   0.004835
   60  H  5  S   -0.082840   0.091658   0.000000  -0.010739  -0.040744
   61  H  5  S   -2.895273   5.703828   0.000000   6.368382  -4.427444
   62  H  5  X    0.009403   0.004103   0.000000   0.000012   0.007574
   63  H  5  Y    0.000000   0.000000  -0.006745   0.000000  -0.000000
   64  H  5  Z    0.015633  -0.023672   0.000000  -0.008671  -0.002829
   65  H  6  S   -0.082840  -0.091658   0.000000  -0.010739  -0.040744
   66  H  6  S   -2.895273  -5.703828   0.000000   6.368382  -4.427444
   67  H  6  X   -0.009403   0.004103   0.000000  -0.000012  -0.007574
   68  H  6  Y    0.000000   0.000000  -0.006745   0.000000  -0.000000
   69  H  6  Z    0.015633   0.023672   0.000000  -0.008671  -0.002829
   70  H  7  S    0.036934   0.072187   0.000000  -0.060562  -0.074752
   71  H  7  S   -0.598725   5.771764   0.000000  -2.189345   6.085185
   72  H  7  X   -0.008399  -0.002732   0.000000   0.014752  -0.000953
   73  H  7  Y    0.000000   0.000000   0.013187   0.000000  -0.000000
   74  H  7  Z   -0.000818   0.017044   0.000000   0.009283   0.009918
   75  H  8  S    0.036934  -0.072187   0.000000  -0.060562  -0.074752
   76  H  8  S   -0.598725  -5.771764   0.000000  -2.189345   6.085185
   77  H  8  X    0.008399  -0.002732   0.000000  -0.014752   0.000953
   78  H  8  Y    0.000000   0.000000   0.013187   0.000000  -0.000000
   79  H  8  Z   -0.000818  -0.017044   0.000000   0.009283   0.009918

                     26         27         28         29         30
                    0.1236     0.1624     0.2682     0.2743     0.3738
                     B1         B1         B1         A1         A1  
    1  N  1  S    0.153636  -0.089693   0.109755  -0.183614   0.002132
    2  N  1  S    0.685695  -1.056283   1.868899  -1.205819  -1.410264
    3  N  1  S   -7.450475   5.947333   1.663485  -2.954395  -1.138056
    4  N  1  X   -0.104256  -0.003863   0.279368  -0.241806  -0.215129
    5  N  1  Y    0.000000  -0.000000   0.000000  -0.000000   0.000000
    6  N  1  Z    0.103493   0.158696  -0.054876  -0.252037  -0.050445
    7  N  1  X   -0.264353  -0.016180   0.701203  -0.876086  -0.800237
    8  N  1  Y    0.000000  -0.000000   0.000000  -0.000000   0.000000
    9  N  1  Z    0.032710   0.202728   0.753871  -0.094029  -0.057390
   10  N  1  X    4.790499   9.467170   0.255988  -0.047474   0.370252
   11  N  1  Y    0.000000  -0.000000   0.000000  -0.000000   0.000000
   12  N  1  Z   -3.923344  -8.791235   2.606204   0.166158   0.016492
   13  N  1 XX   -0.000020  -0.003657   0.031128   0.050202  -0.044344
   14  N  1 YY   -0.013941   0.016814   0.018835  -0.006356   0.035638
   15  N  1 ZZ   -0.003597  -0.000663  -0.057480  -0.044102   0.008772
   16  N  1 XY    0.000000  -0.000000   0.000000  -0.000000   0.000000
   17  N  1 XZ   -0.012330   0.002065  -0.036314  -0.032544   0.029740
   18  N  1 YZ    0.000000  -0.000000   0.000000  -0.000000   0.000000
   19  N  2  S   -0.153636   0.089693  -0.109755  -0.183614   0.002132
   20  N  2  S   -0.685695   1.056283  -1.868899  -1.205819  -1.410264
   21  N  2  S    7.450475  -5.947333  -1.663485  -2.954395  -1.138056
   22  N  2  X   -0.104256  -0.003863   0.279368   0.241806   0.215129
   23  N  2  Y    0.000000  -0.000000   0.000000  -0.000000   0.000000
   24  N  2  Z   -0.103493  -0.158696   0.054876  -0.252037  -0.050445
   25  N  2  X   -0.264353  -0.016180   0.701203   0.876086   0.800237
   26  N  2  Y    0.000000  -0.000000   0.000000  -0.000000   0.000000
   27  N  2  Z   -0.032710  -0.202728  -0.753871  -0.094029  -0.057390
   28  N  2  X    4.790499   9.467170   0.255988   0.047474  -0.370252
   29  N  2  Y    0.000000  -0.000000   0.000000  -0.000000   0.000000
   30  N  2  Z    3.923344   8.791235  -2.606204   0.166158   0.016492
   31  N  2 XX    0.000020   0.003657  -0.031128   0.050202  -0.044344
   32  N  2 YY    0.013941  -0.016814  -0.018835  -0.006356   0.035638
   33  N  2 ZZ    0.003597   0.000663   0.057480  -0.044102   0.008772
   34  N  2 XY    0.000000  -0.000000   0.000000  -0.000000   0.000000
   35  N  2 XZ   -0.012330   0.002065  -0.036314   0.032544  -0.029740
   36  N  2 YZ    0.000000  -0.000000   0.000000  -0.000000   0.000000
   37  C  3  S    0.000000  -0.000000   0.000000   0.393134   0.315630
   38  C  3  S    0.000000  -0.000000   0.000000   4.026965   2.852393
   39  C  3  S    0.000000  -0.000000   0.000000   2.242232  -4.678669
   40  C  3  X    0.054278  -0.063331   0.383241  -0.000000   0.000000
   41  C  3  Y    0.000000  -0.000000   0.000000  -0.000000   0.000000
   42  C  3  Z    0.000000  -0.000000   0.000000  -0.237349   0.190381
   43  C  3  X   -0.448292  -0.013784   3.419155  -0.000000   0.000000
   44  C  3  Y    0.000000  -0.000000   0.000000  -0.000000   0.000000
   45  C  3  Z    0.000000  -0.000000   0.000000  -1.511707  -1.709633
   46  C  3  X   -2.957316  -1.410144   1.179586  -0.000000   0.000000
   47  C  3  Y    0.000000  -0.000000   0.000000  -0.000000   0.000000
   48  C  3  Z    0.000000  -0.000000   0.000000   0.791420  -2.405684
   49  C  3 XX    0.000000  -0.000000   0.000000  -0.117010   0.133990
   50  C  3 YY    0.000000  -0.000000   0.000000   0.008134   0.128765
   51  C  3 ZZ    0.000000  -0.000000   0.000000   0.139444  -0.241718
   52  C  3 XY    0.000000  -0.000000   0.000000  -0.000000   0.000000
   53  C  3 XZ    0.035769  -0.001888   0.083033  -0.000000   0.000000
   54  C  3 YZ    0.000000  -0.000000   0.000000  -0.000000   0.000000
   55  H  4  S    0.000000  -0.000000   0.000000   0.154485  -0.604907
   56  H  4  S    0.000000  -0.000000   0.000000  -1.374728   5.206284
   57  H  4  X    0.033156   0.005542   0.006557  -0.000000   0.000000
   58  H  4  Y    0.000000  -0.000000   0.000000  -0.000000   0.000000
   59  H  4  Z    0.000000  -0.000000   0.000000   0.083757  -0.254243
   60  H  5  S   -0.046046   0.082244  -0.225049  -0.234631   0.130564
   61  H  5  S   -0.459386  -8.864450   3.520057   1.600737  -0.447573
   62  H  5  X    0.012494  -0.002390   0.034854   0.043119  -0.082800
   63  H  5  Y    0.000000  -0.000000   0.000000  -0.000000   0.000000
   64  H  5  Z   -0.002799   0.013089   0.123125   0.061979  -0.009242
   65  H  6  S    0.046046  -0.082244   0.225049  -0.234631   0.130564
   66  H  6  S    0.459386   8.864450  -3.520057   1.600737  -0.447573
   67  H  6  X    0.012494  -0.002390   0.034854  -0.043119   0.082800
   68  H  6  Y    0.000000  -0.000000   0.000000  -0.000000   0.000000
   69  H  6  Z    0.002799  -0.013089  -0.123125   0.061979  -0.009242
   70  H  7  S   -0.011774   0.005565   0.136992   0.242402  -0.380854
   71  H  7  S    7.787863  12.068471  -1.716708   0.058135   1.624126
   72  H  7  X   -0.015694   0.008186  -0.083295  -0.134530   0.079228
   73  H  7  Y    0.000000  -0.000000   0.000000  -0.000000   0.000000
   74  H  7  Z    0.014385  -0.004506  -0.025734  -0.004158  -0.032739
   75  H  8  S    0.011774  -0.005565  -0.136992   0.242402  -0.380854
   76  H  8  S   -7.787863 -12.068471   1.716708   0.058135   1.624126
   77  H  8  X   -0.015694   0.008186  -0.083295   0.134530  -0.079228
   78  H  8  Y    0.000000  -0.000000   0.000000  -0.000000   0.000000
   79  H  8  Z   -0.014385   0.004506   0.025734  -0.004158  -0.032739

                     31         32         33         34         35
                    0.4333     0.4402     0.5052     0.5311     0.5391
                     A1         B1         A1         B1         B2  
    1  N  1  S   -0.442466   0.284523   0.087344  -0.095582   0.000000
    2  N  1  S    1.269849  -0.931254   0.100054   2.036853   0.000000
    3  N  1  S   -2.797393   0.783875   1.598014   0.779783   0.000000
    4  N  1  X    0.079718  -0.223474   0.234580  -0.119576   0.000000
    5  N  1  Y    0.000000   0.000000  -0.000000   0.000000   0.008435
    6  N  1  Z    0.006531  -0.135377  -0.293608   0.204442   0.000000
    7  N  1  X    0.127702   0.172664   0.134548   0.455688   0.000000
    8  N  1  Y    0.000000   0.000000  -0.000000   0.000000  -0.287142
    9  N  1  Z   -0.004950   0.021571   0.584227   0.213997   0.000000
   10  N  1  X   -0.655303   3.070493  -0.776253  -1.472656   0.000000
   11  N  1  Y    0.000000   0.000000  -0.000000   0.000000  -0.062652
   12  N  1  Z   -0.986233  -0.603109   0.501175   4.205497   0.000000
   13  N  1 XX    0.056512  -0.047725  -0.016527   0.026030   0.000000
   14  N  1 YY   -0.095429   0.080076   0.013930  -0.025893   0.000000
   15  N  1 ZZ    0.085550  -0.084831  -0.012566   0.020147   0.000000
   16  N  1 XY    0.000000   0.000000  -0.000000   0.000000  -0.047815
   17  N  1 XZ   -0.002232   0.031275  -0.035355   0.101178   0.000000
   18  N  1 YZ    0.000000   0.000000  -0.000000   0.000000  -0.013772
   19  N  2  S   -0.442466  -0.284523   0.087344   0.095582   0.000000
   20  N  2  S    1.269849   0.931254   0.100054  -2.036853   0.000000
   21  N  2  S   -2.797393  -0.783875   1.598014  -0.779783   0.000000
   22  N  2  X   -0.079718  -0.223474  -0.234580  -0.119576   0.000000
   23  N  2  Y    0.000000   0.000000  -0.000000   0.000000   0.008435
   24  N  2  Z    0.006531   0.135377  -0.293608  -0.204442   0.000000
   25  N  2  X   -0.127702   0.172664  -0.134548   0.455688   0.000000
   26  N  2  Y    0.000000   0.000000  -0.000000   0.000000  -0.287142
   27  N  2  Z   -0.004950  -0.021571   0.584227  -0.213997   0.000000
   28  N  2  X    0.655303   3.070493   0.776253  -1.472656   0.000000
   29  N  2  Y    0.000000   0.000000  -0.000000   0.000000  -0.062652
   30  N  2  Z   -0.986233   0.603109   0.501175  -4.205497   0.000000
   31  N  2 XX    0.056512   0.047725  -0.016527  -0.026030   0.000000
   32  N  2 YY   -0.095429  -0.080076   0.013930   0.025893   0.000000
   33  N  2 ZZ    0.085550   0.084831  -0.012566  -0.020147   0.000000
   34  N  2 XY    0.000000   0.000000  -0.000000   0.000000   0.047815
   35  N  2 XZ    0.002232   0.031275   0.035355   0.101178   0.000000
   36  N  2 YZ    0.000000   0.000000  -0.000000   0.000000  -0.013772
   37  C  3  S    0.809198   0.000000  -0.191928   0.000000   0.000000
   38  C  3  S   -1.292229   0.000000  -1.380818   0.000000   0.000000
   39  C  3  S    5.762385   0.000000  -1.405105   0.000000   0.000000
   40  C  3  X    0.000000   0.232962  -0.000000  -0.921793   0.000000
   41  C  3  Y    0.000000   0.000000  -0.000000   0.000000  -1.467181
   42  C  3  Z   -0.093676   0.000000   1.044630   0.000000   0.000000
   43  C  3  X    0.000000  -0.628858  -0.000000   3.972651   0.000000
   44  C  3  Y    0.000000   0.000000  -0.000000   0.000000   2.253421
   45  C  3  Z    0.348521   0.000000  -1.341679   0.000000   0.000000
   46  C  3  X    0.000000   2.610453  -0.000000   1.909912   0.000000
   47  C  3  Y    0.000000   0.000000  -0.000000   0.000000  -0.410027
   48  C  3  Z   -2.001953   0.000000  -0.705368   0.000000   0.000000
   49  C  3 XX   -0.092148   0.000000   0.024526   0.000000   0.000000
   50  C  3 YY    0.033343   0.000000   0.002850   0.000000   0.000000
   51  C  3 ZZ   -0.094680   0.000000  -0.015012   0.000000   0.000000
   52  C  3 XY    0.000000   0.000000  -0.000000   0.000000   0.000000
   53  C  3 XZ    0.000000   0.030480  -0.000000  -0.123834   0.000000
   54  C  3 YZ    0.000000   0.000000  -0.000000   0.000000   0.073831
   55  H  4  S   -0.209907   0.000000  -0.016017   0.000000   0.000000
   56  H  4  S    1.825779   0.000000   2.241242   0.000000   0.000000
   57  H  4  X    0.000000  -0.011750  -0.000000  -0.052370   0.000000
   58  H  4  Y    0.000000   0.000000  -0.000000   0.000000   0.009689
   59  H  4  Z   -0.177398   0.000000  -0.262538   0.000000   0.000000
   60  H  5  S    0.448887  -0.435602  -0.093128   0.038656   0.000000
   61  H  5  S   -2.072756   1.134745   0.336932   4.020879   0.000000
   62  H  5  X   -0.017550  -0.078159   0.158652  -0.219303   0.000000
   63  H  5  Y    0.000000   0.000000  -0.000000   0.000000   0.019997
   64  H  5  Z   -0.232286   0.262722   0.175356  -0.092119   0.000000
   65  H  6  S    0.448887   0.435602  -0.093128  -0.038656   0.000000
   66  H  6  S   -2.072756  -1.134745   0.336932  -4.020879   0.000000
   67  H  6  X    0.017550  -0.078159  -0.158652  -0.219303   0.000000
   68  H  6  Y    0.000000   0.000000  -0.000000   0.000000   0.019997
   69  H  6  Z   -0.232286  -0.262722   0.175356   0.092119   0.000000
   70  H  7  S    0.382892  -0.429345   0.103831  -0.285624   0.000000
   71  H  7  S    0.029047   4.873774  -1.818778  -3.089254   0.000000
   72  H  7  X   -0.175101   0.158760  -0.097264   0.012780   0.000000
   73  H  7  Y    0.000000   0.000000  -0.000000   0.000000   0.075991
   74  H  7  Z    0.157398  -0.194918   0.083092  -0.201564   0.000000
   75  H  8  S    0.382892   0.429345   0.103831   0.285624   0.000000
   76  H  8  S    0.029047  -4.873774  -1.818778   3.089254   0.000000
   77  H  8  X    0.175101   0.158760   0.097264   0.012780   0.000000
   78  H  8  Y    0.000000   0.000000  -0.000000   0.000000   0.075991
   79  H  8  Z    0.157398   0.194918   0.083092   0.201564   0.000000

                     36         37         38         39         40
                    0.5563     0.6150     0.7603     0.7786     0.8056
                     B1         A1         A1         B2         A2  
    1  N  1  S   -0.194175   0.049212   0.148965  -0.000000   0.000000
    2  N  1  S   -0.664844  -2.142801  -0.799999  -0.000000   0.000000
    3  N  1  S   -0.568363  -3.523537  -1.859316  -0.000000   0.000000
    4  N  1  X    0.061007  -0.092018   0.396607  -0.000000   0.000000
    5  N  1  Y   -0.000000   0.000000   0.000000   0.057217  -0.070741
    6  N  1  Z   -0.495928   0.271715  -0.375502  -0.000000   0.000000
    7  N  1  X   -0.726146  -0.934303  -1.002776  -0.000000   0.000000
    8  N  1  Y   -0.000000   0.000000   0.000000  -0.043832   0.088845
    9  N  1  Z    0.186540  -0.623767   0.409062  -0.000000   0.000000
   10  N  1  X    3.196805  -1.557824   0.624478  -0.000000   0.000000
   11  N  1  Y   -0.000000   0.000000   0.000000   0.210506  -0.013067
   12  N  1  Z   -3.130929  -0.019161  -2.986602  -0.000000   0.000000
   13  N  1 XX    0.085546  -0.088932  -0.009686  -0.000000   0.000000
   14  N  1 YY   -0.027531   0.019248   0.029138  -0.000000   0.000000
   15  N  1 ZZ   -0.043378   0.046356  -0.004090  -0.000000   0.000000
   16  N  1 XY   -0.000000   0.000000   0.000000  -0.055754   0.018125
   17  N  1 XZ   -0.016801  -0.063718  -0.037241  -0.000000   0.000000
   18  N  1 YZ   -0.000000   0.000000   0.000000   0.067095  -0.080157
   19  N  2  S    0.194175   0.049212   0.148965  -0.000000   0.000000
   20  N  2  S    0.664844  -2.142801  -0.799999  -0.000000   0.000000
   21  N  2  S    0.568363  -3.523537  -1.859316  -0.000000   0.000000
   22  N  2  X    0.061007   0.092018  -0.396607  -0.000000   0.000000
   23  N  2  Y   -0.000000   0.000000   0.000000   0.057217   0.070741
   24  N  2  Z    0.495928   0.271715  -0.375502  -0.000000   0.000000
   25  N  2  X   -0.726146   0.934303   1.002776  -0.000000   0.000000
   26  N  2  Y   -0.000000   0.000000   0.000000  -0.043832  -0.088845
   27  N  2  Z   -0.186540  -0.623767   0.409062  -0.000000   0.000000
   28  N  2  X    3.196805   1.557824  -0.624478  -0.000000   0.000000
   29  N  2  Y   -0.000000   0.000000   0.000000   0.210506   0.013067
   30  N  2  Z    3.130929  -0.019161  -2.986602  -0.000000   0.000000
   31  N  2 XX   -0.085546  -0.088932  -0.009686  -0.000000   0.000000
   32  N  2 YY    0.027531   0.019248   0.029138  -0.000000   0.000000
   33  N  2 ZZ    0.043378   0.046356  -0.004090  -0.000000   0.000000
   34  N  2 XY   -0.000000   0.000000   0.000000   0.055754   0.018125
   35  N  2 XZ   -0.016801   0.063718   0.037241  -0.000000   0.000000
   36  N  2 YZ   -0.000000   0.000000   0.000000   0.067095   0.080157
   37  C  3  S   -0.000000  -1.686579  -1.334375  -0.000000   0.000000
   38  C  3  S   -0.000000   8.163564   5.345836  -0.000000   0.000000
   39  C  3  S   -0.000000   4.622190   2.989100  -0.000000   0.000000
   40  C  3  X   -0.821378   0.000000   0.000000  -0.000000   0.000000
   41  C  3  Y   -0.000000   0.000000   0.000000   0.205756   0.000000
   42  C  3  Z   -0.000000   0.327423  -0.443031  -0.000000   0.000000
   43  C  3  X   -0.715205   0.000000   0.000000  -0.000000   0.000000
   44  C  3  Y   -0.000000   0.000000   0.000000  -0.490046   0.000000
   45  C  3  Z   -0.000000  -2.374388   1.024853  -0.000000   0.000000
   46  C  3  X   -1.969630   0.000000   0.000000  -0.000000   0.000000
   47  C  3  Y   -0.000000   0.000000   0.000000  -0.261003   0.000000
   48  C  3  Z   -0.000000  -0.625743   2.039754  -0.000000   0.000000
   49  C  3 XX   -0.000000   0.221444   0.083734  -0.000000   0.000000
   50  C  3 YY   -0.000000  -0.069288   0.062442  -0.000000   0.000000
   51  C  3 ZZ   -0.000000   0.064814  -0.004049  -0.000000   0.000000
   52  C  3 XY   -0.000000   0.000000   0.000000  -0.000000   0.177040
   53  C  3 XZ    0.015758   0.000000   0.000000  -0.000000   0.000000
   54  C  3 YZ   -0.000000   0.000000   0.000000   0.284506   0.000000
   55  H  4  S   -0.000000  -0.008657  -0.678872  -0.000000   0.000000
   56  H  4  S   -0.000000  -0.273076  -1.993616  -0.000000   0.000000
   57  H  4  X   -0.149460   0.000000   0.000000  -0.000000   0.000000
   58  H  4  Y   -0.000000   0.000000   0.000000   0.323449   0.000000
   59  H  4  Z   -0.000000   0.173432   0.202487  -0.000000   0.000000
   60  H  5  S   -0.209501   0.233692   0.098838  -0.000000   0.000000
   61  H  5  S   -2.106150   0.436292  -2.218557  -0.000000   0.000000
   62  H  5  X    0.017869   0.253891   0.006827  -0.000000   0.000000
   63  H  5  Y   -0.000000   0.000000   0.000000  -0.280964   0.545114
   64  H  5  Z    0.204688  -0.170950   0.154590  -0.000000   0.000000
   65  H  6  S    0.209501   0.233692   0.098838  -0.000000   0.000000
   66  H  6  S    2.106150   0.436292  -2.218557  -0.000000   0.000000
   67  H  6  X    0.017869  -0.253891  -0.006827  -0.000000   0.000000
   68  H  6  Y   -0.000000   0.000000   0.000000  -0.280964  -0.545114
   69  H  6  Z   -0.204688  -0.170950   0.154590  -0.000000   0.000000
   70  H  7  S    0.186543   0.186836  -0.069847  -0.000000   0.000000
   71  H  7  S    3.523492  -0.646668   2.487620  -0.000000   0.000000
   72  H  7  X   -0.291454   0.192402  -0.131308  -0.000000   0.000000
   73  H  7  Y   -0.000000   0.000000   0.000000   0.492861  -0.386261
   74  H  7  Z    0.009427   0.157892   0.243321  -0.000000   0.000000
   75  H  8  S   -0.186543   0.186836  -0.069847  -0.000000   0.000000
   76  H  8  S   -3.523492  -0.646668   2.487620  -0.000000   0.000000
   77  H  8  X   -0.291454  -0.192402   0.131308  -0.000000   0.000000
   78  H  8  Y   -0.000000   0.000000   0.000000   0.492861   0.386261
   79  H  8  Z   -0.009427   0.157892   0.243321  -0.000000   0.000000

                     41         42         43         44         45
                    0.8658     0.8661     0.8946     0.9355     0.9489
                     A1         B2         A2         B1         B2  
    1  N  1  S    0.112134  -0.000000  -0.000000   0.308653  -0.000000
    2  N  1  S   -1.106398  -0.000000  -0.000000   0.503110  -0.000000
    3  N  1  S   -3.782155  -0.000000  -0.000000   4.033009  -0.000000
    4  N  1  X    0.684861  -0.000000  -0.000000  -0.590315  -0.000000
    5  N  1  Y    0.000000   0.175933  -0.879358  -0.000000  -1.026985
    6  N  1  Z    0.360298  -0.000000  -0.000000  -0.330935  -0.000000
    7  N  1  X   -1.941207  -0.000000  -0.000000   1.614973  -0.000000
    8  N  1  Y    0.000000  -0.207943   1.149673  -0.000000   1.380507
    9  N  1  Z   -0.696004  -0.000000  -0.000000   1.198503  -0.000000
   10  N  1  X    0.083468  -0.000000  -0.000000  -0.720193  -0.000000
   11  N  1  Y    0.000000   0.051596  -0.484866  -0.000000  -0.717362
   12  N  1  Z    0.828483  -0.000000  -0.000000   1.555831  -0.000000
   13  N  1 XX   -0.082220  -0.000000  -0.000000   0.049934  -0.000000
   14  N  1 YY    0.040621  -0.000000  -0.000000  -0.043096  -0.000000
   15  N  1 ZZ    0.002420  -0.000000  -0.000000   0.035578  -0.000000
   16  N  1 XY    0.000000  -0.032551  -0.064898  -0.000000  -0.033051
   17  N  1 XZ   -0.042170  -0.000000  -0.000000   0.055408  -0.000000
   18  N  1 YZ    0.000000  -0.035151  -0.012700  -0.000000  -0.029636
   19  N  2  S    0.112134  -0.000000  -0.000000  -0.308653  -0.000000
   20  N  2  S   -1.106398  -0.000000  -0.000000  -0.503110  -0.000000
   21  N  2  S   -3.782155  -0.000000  -0.000000  -4.033009  -0.000000
   22  N  2  X   -0.684861  -0.000000  -0.000000  -0.590315  -0.000000
   23  N  2  Y    0.000000   0.175933   0.879358  -0.000000  -1.026985
   24  N  2  Z    0.360298  -0.000000  -0.000000   0.330935  -0.000000
   25  N  2  X    1.941207  -0.000000  -0.000000   1.614973  -0.000000
   26  N  2  Y    0.000000  -0.207943  -1.149673  -0.000000   1.380507
   27  N  2  Z   -0.696004  -0.000000  -0.000000  -1.198503  -0.000000
   28  N  2  X   -0.083468  -0.000000  -0.000000  -0.720193  -0.000000
   29  N  2  Y    0.000000   0.051596   0.484866  -0.000000  -0.717362
   30  N  2  Z    0.828483  -0.000000  -0.000000  -1.555831  -0.000000
   31  N  2 XX   -0.082220  -0.000000  -0.000000  -0.049934  -0.000000
   32  N  2 YY    0.040621  -0.000000  -0.000000   0.043096  -0.000000
   33  N  2 ZZ    0.002420  -0.000000  -0.000000  -0.035578  -0.000000
   34  N  2 XY    0.000000   0.032551  -0.064898  -0.000000   0.033051
   35  N  2 XZ    0.042170  -0.000000  -0.000000   0.055408  -0.000000
   36  N  2 YZ    0.000000  -0.035151   0.012700  -0.000000  -0.029636
   37  C  3  S   -0.158010  -0.000000  -0.000000  -0.000000  -0.000000
   38  C  3  S    4.321642  -0.000000  -0.000000  -0.000000  -0.000000
   39  C  3  S    1.125324  -0.000000  -0.000000  -0.000000  -0.000000
   40  C  3  X    0.000000  -0.000000  -0.000000  -0.564997  -0.000000
   41  C  3  Y    0.000000   0.064058  -0.000000  -0.000000   0.081125
   42  C  3  Z    0.456461  -0.000000  -0.000000  -0.000000  -0.000000
   43  C  3  X    0.000000  -0.000000  -0.000000   3.778767  -0.000000
   44  C  3  Y    0.000000  -0.382050  -0.000000  -0.000000  -0.440586
   45  C  3  Z   -2.484015  -0.000000  -0.000000  -0.000000  -0.000000
   46  C  3  X    0.000000  -0.000000  -0.000000   1.534112  -0.000000
   47  C  3  Y    0.000000  -0.025129  -0.000000  -0.000000   0.916001
   48  C  3  Z   -1.009589  -0.000000  -0.000000  -0.000000  -0.000000
   49  C  3 XX    0.377234  -0.000000  -0.000000  -0.000000  -0.000000
   50  C  3 YY   -0.124056  -0.000000  -0.000000  -0.000000  -0.000000
   51  C  3 ZZ   -0.038697  -0.000000  -0.000000  -0.000000  -0.000000
   52  C  3 XY    0.000000  -0.000000   0.295815  -0.000000  -0.000000
   53  C  3 XZ    0.000000  -0.000000  -0.000000  -0.365413  -0.000000
   54  C  3 YZ    0.000000   0.218347  -0.000000  -0.000000   0.098234
   55  H  4  S    0.289862  -0.000000  -0.000000  -0.000000  -0.000000
   56  H  4  S    0.548758  -0.000000  -0.000000  -0.000000  -0.000000
   57  H  4  X    0.000000  -0.000000  -0.000000  -0.066191  -0.000000
   58  H  4  Y    0.000000   0.690587  -0.000000  -0.000000  -0.051765
   59  H  4  Z    0.098703  -0.000000  -0.000000  -0.000000  -0.000000
   60  H  5  S   -0.165749  -0.000000  -0.000000   0.420371  -0.000000
   61  H  5  S    1.465114  -0.000000  -0.000000   0.766227  -0.000000
   62  H  5  X   -0.082192  -0.000000  -0.000000   0.201667  -0.000000
   63  H  5  Y    0.000000   0.430764   0.071727  -0.000000   0.193664
   64  H  5  Z   -0.160087  -0.000000  -0.000000   0.203387  -0.000000
   65  H  6  S   -0.165749  -0.000000  -0.000000  -0.420371  -0.000000
   66  H  6  S    1.465114  -0.000000  -0.000000  -0.766227  -0.000000
   67  H  6  X    0.082192  -0.000000  -0.000000   0.201667  -0.000000
   68  H  6  Y    0.000000   0.430764  -0.071727  -0.000000   0.193664
   69  H  6  Z   -0.160087  -0.000000  -0.000000  -0.203387  -0.000000
   70  H  7  S   -0.234816  -0.000000  -0.000000   0.213202  -0.000000
   71  H  7  S    0.618914  -0.000000  -0.000000  -1.921625  -0.000000
   72  H  7  X   -0.264801  -0.000000  -0.000000   0.188688  -0.000000
   73  H  7  Y    0.000000  -0.135231   0.280235  -0.000000   0.123161
   74  H  7  Z   -0.061566  -0.000000  -0.000000   0.023434  -0.000000
   75  H  8  S   -0.234816  -0.000000  -0.000000  -0.213202  -0.000000
   76  H  8  S    0.618914  -0.000000  -0.000000   1.921625  -0.000000
   77  H  8  X    0.264801  -0.000000  -0.000000   0.188688  -0.000000
   78  H  8  Y    0.000000  -0.135231  -0.280235  -0.000000   0.123161
   79  H  8  Z   -0.061566  -0.000000  -0.000000  -0.023434  -0.000000

                     46         47         48         49         50
                    1.0120     1.0323     1.1083     1.1743     1.2373
                     A2         B1         A1         B1         A1  
    1  N  1  S   -0.000000  -0.067212   0.831486  -1.490634  -1.391104
    2  N  1  S   -0.000000  -0.233248  -1.868255   5.102385   5.837106
[...]
   29  N  2  Y   -0.000000   0.000000   0.000000   0.000000  -0.000000
   30  N  2  Z   -0.091272  -1.236748   0.443892   0.963238   0.695342
   31  N  2 XX    0.277553  -0.616882  -0.615276   0.294678  -0.714129
   32  N  2 YY   -0.825620   0.849653  -0.182422   0.160819  -0.180272
   33  N  2 ZZ    0.100587  -0.113397   0.547927  -0.238696   0.919238
   34  N  2 XY   -0.000000   0.000000   0.000000   0.000000  -0.000000
   35  N  2 XZ   -0.107065   0.065468   0.660786  -0.908753  -0.297302
   36  N  2 YZ   -0.000000   0.000000   0.000000   0.000000  -0.000000
   37  C  3  S   -1.259735   0.000000   2.024293   0.000000  -0.000000
   38  C  3  S   -0.878806   0.000000   0.851277   0.000000  -0.000000
   39  C  3  S    1.596775   0.000000  -0.368536   0.000000  -0.000000
   40  C  3  X   -0.000000   1.241466   0.000000  -1.226483   0.182871
   41  C  3  Y   -0.000000   0.000000   0.000000   0.000000  -0.000000
   42  C  3  Z    0.606737   0.000000  -0.753066   0.000000  -0.000000
   43  C  3  X   -0.000000   1.805946   0.000000  -0.621469   0.135914
   44  C  3  Y   -0.000000   0.000000   0.000000   0.000000  -0.000000
   45  C  3  Z   -0.028495   0.000000  -0.459438   0.000000  -0.000000
   46  C  3  X   -0.000000  -0.222774   0.000000  -0.705321  -0.123325
   47  C  3  Y   -0.000000   0.000000   0.000000   0.000000  -0.000000
   48  C  3  Z   -0.402087   0.000000  -0.373755   0.000000  -0.000000
   49  C  3 XX    0.245832   0.000000   0.368064   0.000000  -0.000000
   50  C  3 YY    0.859442   0.000000  -0.205529   0.000000  -0.000000
   51  C  3 ZZ    0.776175   0.000000  -0.195616   0.000000  -0.000000
   52  C  3 XY   -0.000000   0.000000   0.000000   0.000000  -0.000000
   53  C  3 XZ   -0.000000  -0.233564   0.000000   0.507374  -0.921134
   54  C  3 YZ   -0.000000   0.000000   0.000000   0.000000  -0.000000
   55  H  4  S   -0.311887   0.000000   0.153160   0.000000  -0.000000
   56  H  4  S    0.133898   0.000000   0.287080   0.000000  -0.000000
   57  H  4  X   -0.000000  -0.169405   0.000000   0.051727   0.408765
   58  H  4  Y   -0.000000   0.000000   0.000000   0.000000  -0.000000
   59  H  4  Z    0.332492   0.000000  -0.046996   0.000000  -0.000000
   60  H  5  S   -0.618448  -0.385116  -0.883390  -0.164074   1.256209
   61  H  5  S   -0.098292   1.425771   0.652459  -0.614458  -0.798403
   62  H  5  X    0.183579  -0.049513  -0.113592  -0.126748   0.098494
   63  H  5  Y   -0.000000   0.000000   0.000000   0.000000  -0.000000
   64  H  5  Z   -0.392036  -0.266454  -0.477054  -0.131234   0.625019
   65  H  6  S   -0.618448   0.385116  -0.883390   0.164074  -1.256209
   66  H  6  S   -0.098292  -1.425771   0.652459   0.614458   0.798403
   67  H  6  X   -0.183579  -0.049513   0.113592  -0.126748   0.098494
   68  H  6  Y   -0.000000   0.000000   0.000000   0.000000  -0.000000
   69  H  6  Z   -0.392036   0.266454  -0.477054   0.131234  -0.625019
   70  H  7  S   -0.851122  -0.990339  -0.514489  -1.122685  -0.650205
   71  H  7  S    0.290128  -1.421560   0.468558   1.243130   0.623527
   72  H  7  X   -0.271845  -0.411543  -0.253910  -0.602779  -0.220959
   73  H  7  Y   -0.000000   0.000000   0.000000   0.000000  -0.000000
   74  H  7  Z    0.379736   0.309527   0.115858   0.223818   0.281263
   75  H  8  S   -0.851122   0.990339  -0.514489   1.122685   0.650205
   76  H  8  S    0.290128   1.421560   0.468558  -1.243130  -0.623527
   77  H  8  X    0.271845  -0.411543   0.253910  -0.602779  -0.220959
   78  H  8  Y   -0.000000   0.000000   0.000000   0.000000  -0.000000
   79  H  8  Z    0.379736  -0.309527   0.115858  -0.223818  -0.281263

                     76         77         78         79
                    3.4588     3.4814     4.4587     4.4683
                     A1         A1         A1         B1  
    1  N  1  S    0.212337   0.529300  -0.946601   0.557574
    2  N  1  S   -1.543665   3.349280   0.079630   2.361401
    3  N  1  S    1.262997  -1.374235   1.125805  -1.773552
    4  N  1  X    0.220386   0.471654   0.053084  -0.064748
    5  N  1  Y    0.000000   0.000000  -0.000000   0.000000
    6  N  1  Z   -0.175207   0.093595   0.063127  -0.035359
    7  N  1  X   -0.396680   1.752889  -0.084736   0.984997
    8  N  1  Y    0.000000   0.000000  -0.000000   0.000000
    9  N  1  Z   -0.787018   0.214252  -0.110295   0.710617
   10  N  1  X    0.104280  -0.268017   0.037564  -0.739606
   11  N  1  Y    0.000000   0.000000  -0.000000   0.000000
   12  N  1  Z    0.383909  -0.644458  -0.144929   1.060399
   13  N  1 XX   -0.671320  -0.206001   1.275362  -1.245125
   14  N  1 YY    0.310512  -0.576298   0.659844  -0.924105
   15  N  1 ZZ    0.522611   0.320318   1.395083  -1.209803
   16  N  1 XY    0.000000   0.000000  -0.000000   0.000000
   17  N  1 XZ    0.628464   0.582021   0.089327   0.065201
   18  N  1 YZ    0.000000   0.000000  -0.000000   0.000000
   19  N  2  S    0.212337   0.529300  -0.946601  -0.557574
   20  N  2  S   -1.543665   3.349280   0.079630  -2.361401
   21  N  2  S    1.262997  -1.374235   1.125805   1.773552
   22  N  2  X   -0.220386  -0.471654  -0.053084  -0.064748
   23  N  2  Y    0.000000   0.000000  -0.000000   0.000000
   24  N  2  Z   -0.175207   0.093595   0.063127   0.035359
   25  N  2  X    0.396680  -1.752889   0.084736   0.984997
   26  N  2  Y    0.000000   0.000000  -0.000000   0.000000
   27  N  2  Z   -0.787018   0.214252  -0.110295  -0.710617
   28  N  2  X   -0.104280   0.268017  -0.037564  -0.739606
   29  N  2  Y    0.000000   0.000000  -0.000000   0.000000
   30  N  2  Z    0.383909  -0.644458  -0.144929  -1.060399
   31  N  2 XX   -0.671320  -0.206001   1.275362   1.245125
   32  N  2 YY    0.310512  -0.576298   0.659844   0.924105
   33  N  2 ZZ    0.522611   0.320318   1.395083   1.209803
   34  N  2 XY    0.000000   0.000000  -0.000000   0.000000
   35  N  2 XZ   -0.628464  -0.582021  -0.089327   0.065201
   36  N  2 YZ    0.000000   0.000000  -0.000000   0.000000
   37  C  3  S    0.732125  -1.227260  -0.561951   0.000000
   38  C  3  S    0.270872  -2.026897   0.530394   0.000000
   39  C  3  S   -1.399299   2.792152  -1.118289   0.000000
   40  C  3  X    0.000000   0.000000  -0.000000  -0.451509
   41  C  3  Y    0.000000   0.000000  -0.000000   0.000000
   42  C  3  Z    0.348276   0.043329   0.291455   0.000000
   43  C  3  X    0.000000   0.000000  -0.000000   2.057186
   44  C  3  Y    0.000000   0.000000  -0.000000   0.000000
   45  C  3  Z    0.268546   1.781470   0.027541   0.000000
   46  C  3  X    0.000000   0.000000  -0.000000   0.070504
   47  C  3  Y    0.000000   0.000000  -0.000000   0.000000
   48  C  3  Z    0.133331   0.164122   0.265476   0.000000
   49  C  3 XX   -0.023374  -2.181091  -0.973841   0.000000
   50  C  3 YY    0.341027  -0.474241   0.038579   0.000000
   51  C  3 ZZ    1.816852  -1.177424  -0.333138   0.000000
   52  C  3 XY    0.000000   0.000000  -0.000000   0.000000
   53  C  3 XZ    0.000000   0.000000  -0.000000   0.459767
   54  C  3 YZ    0.000000   0.000000  -0.000000   0.000000
   55  H  4  S   -1.436920   0.556309   0.182545   0.000000
   56  H  4  S   -0.199774  -0.709441   0.049747   0.000000
   57  H  4  X    0.000000   0.000000  -0.000000  -0.227574
   58  H  4  Y    0.000000   0.000000  -0.000000   0.000000
   59  H  4  Z    0.780357  -0.660235  -0.258761   0.000000
   60  H  5  S   -0.553948  -0.635681  -0.719018   0.607784
   61  H  5  S    0.255170  -0.496610  -0.239706   1.456506
   62  H  5  X    0.201634  -0.221443  -0.026350  -0.056938
   63  H  5  Y    0.000000   0.000000  -0.000000   0.000000
   64  H  5  Z   -0.318613  -0.358398  -0.551681   0.499172
   65  H  6  S   -0.553948  -0.635681  -0.719018  -0.607784
   66  H  6  S    0.255170  -0.496610  -0.239706  -1.456506
   67  H  6  X   -0.201634   0.221443   0.026350  -0.056938
   68  H  6  Y    0.000000   0.000000  -0.000000   0.000000
   69  H  6  Z   -0.318613  -0.358398  -0.551681  -0.499172
   70  H  7  S    0.898490   0.369336  -0.586678   0.550456
   71  H  7  S   -0.350493   0.242800  -0.089719  -0.806488
   72  H  7  X    0.477294  -0.058141  -0.412070   0.399746
   73  H  7  Y    0.000000   0.000000  -0.000000   0.000000
   74  H  7  Z   -0.217007  -0.348789   0.268999  -0.364240
   75  H  8  S    0.898490   0.369336  -0.586678  -0.550456
   76  H  8  S   -0.350493   0.242800  -0.089719   0.806488
   77  H  8  X   -0.477294   0.058141   0.412070   0.399746
   78  H  8  Y    0.000000   0.000000  -0.000000   0.000000
   79  H  8  Z   -0.217007  -0.348789   0.268999   0.364240
 ...... END OF RHF CALCULATION ......
 STEP CPU TIME =     0.17 TOTAL CPU TIME =          0.7 (      0.0 MIN)
 TOTAL WALL CLOCK TIME=          0.7 SECONDS, CPU UTILIZATION IS   100.00%

     ----------------------------------------------------------------
     PROPERTY VALUES FOR THE RHF   SELF-CONSISTENT FIELD WAVEFUNCTION
     ----------------------------------------------------------------

          -----------------
          ENERGY COMPONENTS
          -----------------

         WAVEFUNCTION NORMALIZATION =       1.0000000000

                ONE ELECTRON ENERGY =    -130.6427342877
                TWO ELECTRON ENERGY =      56.0424434107
           NUCLEAR REPULSION ENERGY =      46.9132012474
                                      ------------------
                       TOTAL ENERGY =     -27.6870896296

 ELECTRON-ELECTRON POTENTIAL ENERGY =      56.0424434107
  NUCLEUS-ELECTRON POTENTIAL ENERGY =    -152.3229119672
   NUCLEUS-NUCLEUS POTENTIAL ENERGY =      46.9132012474
                                      ------------------
             TOTAL POTENTIAL ENERGY =     -49.3672673090
               TOTAL KINETIC ENERGY =      21.6801776795
                 VIRIAL RATIO (V/T) =       2.2770693137

  ...... PI ENERGY ANALYSIS ......

 ENERGY ANALYSIS:
            FOCK ENERGY=    -18.5578463878
          BARE H ENERGY=   -130.6427342877
     ELECTRONIC ENERGY =    -74.6002903377
         KINETIC ENERGY=     21.6801776795
          N-N REPULSION=     46.9132012474
           TOTAL ENERGY=    -27.6870890903
        SIGMA PART(1+2)=    -59.0647402044
               (K,V1,2)=     15.6531160463   -118.1213744620     43.4035182112
           PI PART(1+2)=    -15.5355501333
               (K,V1,2)=      6.0270616331    -34.2015375052     12.6389257387
  SIGMA SKELETON, ERROR=    -12.1515389570     -0.0000000000
             MIXED PART= 0.00000E+00 0.00000E+00 0.00000E+00 0.00000E+00
 ...... END OF PI ENERGY ANALYSIS ......

          ---------------------------------------
          MULLIKEN AND LOWDIN POPULATION ANALYSES
          ---------------------------------------

     ATOMIC MULLIKEN POPULATION IN EACH MOLECULAR ORBITAL

                      1          2          3          4          5

                  2.000000   2.000000   2.000000   2.000000   2.000000

    1             0.533787   0.607258   0.408996   0.437493   0.525255
    2             0.533787   0.607258   0.408996   0.437493   0.525255
    3             0.695361   0.422638   0.506819   0.462780   0.444082
    4             0.057730   0.000700   0.222146   0.126604   0.001352
    5             0.076682   0.048989   0.140400   0.048786   0.255831
    6             0.076682   0.048989   0.140400   0.048786   0.255831
    7             0.012986   0.132084   0.086121   0.219029  -0.003804
    8             0.012986   0.132084   0.086121   0.219029  -0.003804

                      6          7          8          9

                  2.000000   2.000000   2.000000   2.000000

    1             0.537810   0.272669   0.667955   0.948618
    2             0.537810   0.272669   0.667955   0.948618
    3             0.143366   0.504534   0.634066   0.056780
    4             0.000174   0.514677   0.004060   0.000000
    5             0.074871   0.174251   0.006724   0.010793
    6             0.074871   0.174251   0.006724   0.010793
    7             0.315549   0.043474   0.006258   0.012199
    8             0.315549   0.043474   0.006258   0.012199

               ----- POPULATIONS IN EACH AO -----
                             MULLIKEN      LOWDIN
              1  N  1  S      1.54030     0.51056
              2  N  1  S     -0.51269     0.17399
              3  N  1  S      0.18745     0.05670
              4  N  1  X      1.28795     0.90605
              5  N  1  Y      1.53869     1.11294
              6  N  1  Z      1.33292     0.93656
              7  N  1  X     -0.27126     0.28077
              8  N  1  Y      0.07019     0.35809
              9  N  1  Z     -0.28001     0.30647
             10  N  1  X     -0.02264     0.04043
             11  N  1  Y      0.00310     0.03680
             12  N  1  Z     -0.01422     0.03360
             13  N  1 XX      0.03408     0.19018
             14  N  1 YY     -0.00036     0.09900
             15  N  1 ZZ      0.03022     0.17799
             16  N  1 XY      0.00364     0.00629
             17  N  1 XZ      0.01154     0.03335
             18  N  1 YZ      0.00095     0.00159
             19  N  2  S      1.54030     0.51056
             20  N  2  S     -0.51269     0.17399
             21  N  2  S      0.18745     0.05670
             22  N  2  X      1.28795     0.90605
             23  N  2  Y      1.53869     1.11294
             24  N  2  Z      1.33292     0.93656
             25  N  2  X     -0.27126     0.28077
             26  N  2  Y      0.07019     0.35809
             27  N  2  Z     -0.28001     0.30647
             28  N  2  X     -0.02264     0.04043
             29  N  2  Y      0.00310     0.03680
             30  N  2  Z     -0.01422     0.03360
             31  N  2 XX      0.03408     0.19018
             32  N  2 YY     -0.00036     0.09900
             33  N  2 ZZ      0.03022     0.17799
             34  N  2 XY      0.00364     0.00629
             35  N  2 XZ      0.01154     0.03335
             36  N  2 YZ      0.00095     0.00159
             37  C  3  S      1.41997     0.40576
             38  C  3  S     -0.29362     0.12263
             39  C  3  S     -0.08665     0.04498
             40  C  3  X      1.04745     0.67405
             41  C  3  Y      0.72852     0.46430
             42  C  3  Z      1.24847     0.83258
             43  C  3  X     -0.12780     0.13426
             44  C  3  Y     -0.09241     0.14665
             45  C  3  Z     -0.23089     0.19442
             46  C  3  X      0.04893     0.02997
             47  C  3  Y     -0.01119     0.01480
             48  C  3  Z      0.02402     0.01982
             49  C  3 XX      0.06188     0.21149
             50  C  3 YY     -0.01937     0.06090
             51  C  3 ZZ      0.04569     0.18306
             52  C  3 XY      0.05678     0.10694
             53  C  3 XZ      0.04151     0.08089
             54  C  3 YZ      0.00914     0.01543
             55  H  4  S      0.87926     0.64824
             56  H  4  S      0.01123     0.04869
             57  H  4  X      0.00223     0.01314
             58  H  4  Y      0.00406     0.01166
             59  H  4  Z      0.03067     0.07102
             60  H  5  S      0.82899     0.54923
             61  H  5  S     -0.06863     0.04038
             62  H  5  X      0.01426     0.02031
             63  H  5  Y      0.01752     0.05106
             64  H  5  Z      0.04519     0.07794
             65  H  6  S      0.82899     0.54923
             66  H  6  S     -0.06863     0.04038
             67  H  6  X      0.01426     0.02031
             68  H  6  Y      0.01752     0.05106
             69  H  6  Z      0.04519     0.07794
             70  H  7  S      0.82028     0.54285
             71  H  7  S     -0.07371     0.03835
             72  H  7  X      0.03654     0.06034
             73  H  7  Y      0.01846     0.05333
             74  H  7  Z      0.02233     0.03703
             75  H  8  S      0.82028     0.54285
             76  H  8  S     -0.07371     0.03835
             77  H  8  X      0.03654     0.06034
             78  H  8  Y      0.01846     0.05333
             79  H  8  Z      0.02233     0.03703

          ----- MULLIKEN ATOMIC OVERLAP POPULATIONS -----
          (OFF-DIAGONAL ELEMENTS NEED TO BE MULTIPLIED BY 2)

             1           2           3           4           5

    1    3.7160943
    2   -0.1160408   3.7160943
    3    0.5828258   0.5828258   2.3277459
    4   -0.0037047  -0.0037047   0.3804126   0.5672809
    5    0.3718652   0.0241761  -0.0262946   0.0133760   0.5234138
    6    0.0241761   0.3718652  -0.0262946   0.0133760  -0.0114925
    7    0.3716942  -0.0070698   0.0246033  -0.0197969  -0.0625248
    8   -0.0070698   0.3716942   0.0246033  -0.0197969   0.0048106

             6           7           8

    6    0.5234138
    7    0.0048106   0.5149383
    8   -0.0625248  -0.0027596   0.5149383

          TOTAL MULLIKEN AND LOWDIN ATOMIC POPULATIONS
       ATOM         MULL.POP.    CHARGE          LOW.POP.     CHARGE
    1 N             4.939840    0.060160         5.261352   -0.261352
    2 N             4.939840    0.060160         5.261352   -0.261352
    3 C             3.870427    0.129573         3.742908    0.257092
    4 H             0.927442    0.072558         0.792753    0.207247
    5 H             0.837330    0.162670         0.738918    0.261082
    6 H             0.837330    0.162670         0.738918    0.261082
    7 H             0.823895    0.176105         0.731900    0.268100
    8 H             0.823895    0.176105         0.731900    0.268100

          -------------------------------
          BOND ORDER AND VALENCE ANALYSIS     BOND ORDER THRESHOLD=0.050
          -------------------------------

                   BOND                       BOND                       BOND
  ATOM PAIR DIST  ORDER      ATOM PAIR DIST  ORDER      ATOM PAIR DIST  ORDER
    1   3  1.304  1.608        1   5  1.009  0.927        1   7  1.007  0.947
    2   3  1.304  1.608        2   6  1.009  0.927        2   8  1.007  0.947
    3   4  1.085  0.926        3   5  2.038  0.053        3   6  2.038  0.053

                       TOTAL       BONDED        FREE
      ATOM            VALENCE     VALENCE     VALENCE
    1 N                 3.511       3.511      -0.000
    2 N                 3.511       3.511      -0.000
    3 C                 4.335       4.335       0.000
    4 H                 1.006       1.006       0.000
    5 H                 1.000       1.000      -0.000
    6 H                 1.000       1.000      -0.000
    7 H                 0.947       0.947      -0.000
    8 H                 0.947       0.947      -0.000

          ---------------------
          ELECTROSTATIC MOMENTS
          ---------------------

 POINT   1           X           Y           Z (BOHR)    CHARGE
                 0.000000    0.000000    0.004366        1.00 (A.U.)
         DX          DY          DZ         /D/  (DEBYE)
    -0.000000    0.000000    0.028224    0.028224
 ...... END OF PROPERTY EVALUATION ......
 STEP CPU TIME =     0.01 TOTAL CPU TIME =          0.7 (      0.0 MIN)
 TOTAL WALL CLOCK TIME=          0.7 SECONDS, CPU UTILIZATION IS   101.45%
               580000  WORDS OF DYNAMIC MEMORY USED
 EXECUTION OF GAMESS TERMINATED NORMALLY Thu Jan  7 15:16:48 2021
 DDI: 263640 bytes (0.3 MB / 0 MWords) used by master data server.

 ----------------------------------------
 CPU timing information for all processes
 ========================================
 0: 0.680 + 0.20 = 0.700
 ----------------------------------------
 ddikick.x: exited gracefully.
----- accounting info -----
Files used on the master node ccp01 were:
-rw-r--r-- 1 shinde shinde     1156 Jan  7 15:16 /local/shinde/tmp.LZqOuf1Aa2/cn3_rhf_BFD-Da.F05
-rw-rw-r-- 1 shinde shinde 15661392 Jan  7 15:16 /local/shinde/tmp.LZqOuf1Aa2/cn3_rhf_BFD-Da.F08
-rw-rw-r-- 1 shinde shinde  1799600 Jan  7 15:16 /local/shinde/tmp.LZqOuf1Aa2/cn3_rhf_BFD-Da.F10
Thu Jan  7 15:16:51 CET 2021
0.176u 0.099s 0:04.00 6.5%	0+0k 8+176io 0pf+0w
